 Entering Gaussian System, Link 0=g09
 Input=HOD_freq.gjf
 Output=HOD_freq.log
 Initial command:
 /usr/local/gaussian/g09/l1.exe "/scratch/Gau-32232.inp" -scrdir="/scratch/"
 Entering Link 1 = /usr/local/gaussian/g09/l1.exe PID=     32236.
  
 Copyright (c) 1988,1990,1992,1993,1995,1998,2003,2009,2015,
            Gaussian, Inc.  All Rights Reserved.
  
 This is part of the Gaussian(R) 09 program.  It is based on
 the Gaussian(R) 03 system (copyright 2003, Gaussian, Inc.),
 the Gaussian(R) 98 system (copyright 1998, Gaussian, Inc.),
 the Gaussian(R) 94 system (copyright 1995, Gaussian, Inc.),
 the Gaussian 92(TM) system (copyright 1992, Gaussian, Inc.),
 the Gaussian 90(TM) system (copyright 1990, Gaussian, Inc.),
 the Gaussian 88(TM) system (copyright 1988, Gaussian, Inc.),
 the Gaussian 86(TM) system (copyright 1986, Carnegie Mellon
 University), and the Gaussian 82(TM) system (copyright 1983,
 Carnegie Mellon University). Gaussian is a federally registered
 trademark of Gaussian, Inc.
  
 This software contains proprietary and confidential information,
 including trade secrets, belonging to Gaussian, Inc.
  
 This software is provided under written license and may be
 used, copied, transmitted, or stored only in accord with that
 written license.
  
 The following legend is applicable only to US Government
 contracts under FAR:
  
                    RESTRICTED RIGHTS LEGEND
  
 Use, reproduction and disclosure by the US Government is
 subject to restrictions as set forth in subparagraphs (a)
 and (c) of the Commercial Computer Software - Restricted
 Rights clause in FAR 52.227-19.
  
 Gaussian, Inc.
 340 Quinnipiac St., Bldg. 40, Wallingford CT 06492
  
  
 ---------------------------------------------------------------
 Warning -- This program may not be used in any manner that
 competes with the business of Gaussian, Inc. or will provide
 assistance to any competitor of Gaussian, Inc.  The licensee
 of this program is prohibited from giving any competitor of
 Gaussian, Inc. access to this program.  By using this program,
 the user acknowledges that Gaussian, Inc. is engaged in the
 business of creating and licensing software in the field of
 computational chemistry and represents and warrants to the
 licensee that it is not a competitor of Gaussian, Inc. and that
 it will not use this program in any manner prohibited above.
 ---------------------------------------------------------------
  

 Cite this work as:
 Gaussian 09, Revision E.01,
 M. J. Frisch, G. W. Trucks, H. B. Schlegel, G. E. Scuseria, 
 M. A. Robb, J. R. Cheeseman, G. Scalmani, V. Barone, B. Mennucci, 
 G. A. Petersson, H. Nakatsuji, M. Caricato, X. Li, H. P. Hratchian, 
 A. F. Izmaylov, J. Bloino, G. Zheng, J. L. Sonnenberg, M. Hada, 
 M. Ehara, K. Toyota, R. Fukuda, J. Hasegawa, M. Ishida, T. Nakajima, 
 Y. Honda, O. Kitao, H. Nakai, T. Vreven, J. A. Montgomery, Jr., 
 J. E. Peralta, F. Ogliaro, M. Bearpark, J. J. Heyd, E. Brothers, 
 K. N. Kudin, V. N. Staroverov, T. Keith, R. Kobayashi, J. Normand, 
 K. Raghavachari, A. Rendell, J. C. Burant, S. S. Iyengar, J. Tomasi, 
 M. Cossi, N. Rega, J. M. Millam, M. Klene, J. E. Knox, J. B. Cross, 
 V. Bakken, C. Adamo, J. Jaramillo, R. Gomperts, R. E. Stratmann, 
 O. Yazyev, A. J. Austin, R. Cammi, C. Pomelli, J. W. Ochterski, 
 R. L. Martin, K. Morokuma, V. G. Zakrzewski, G. A. Voth, 
 P. Salvador, J. J. Dannenberg, S. Dapprich, A. D. Daniels, 
 O. Farkas, J. B. Foresman, J. V. Ortiz, J. Cioslowski, 
 and D. J. Fox, Gaussian, Inc., Wallingford CT, 2013.
 
 ******************************************
 Gaussian 09:  ES64L-G09RevE.01 30-Nov-2015
                16-Mar-2020 
 ******************************************
 %Chk=HOD_freq.chk
 %NProc=8
 Will use up to    8 processors via shared memory.
 %Mem=1000MB
 ----------------------------------------------------------------------
 #MP2/aug-cc-pvdz #Density=current #Opt=VeryTight #Frequency=Anharmonic
 ----------------------------------------------------------------------
 1/7=1,18=20,19=15,38=1,80=1/1,3;
 2/9=110,12=2,17=6,18=5,40=1/2;
 3/5=16,7=10,11=9,16=1,25=1,30=1,71=1/1,2,3;
 4//1;
 5/5=2,38=5/2;
 8/6=4,10=1/1;
 9/15=2,16=-3/6;
 10/5=1/2;
 6/7=2,8=2,9=2,10=2,22=-1/1;
 7/12=2/1,2,3,16;
 1/7=1,18=20,19=15,80=1/3(2);
 2/9=110/2;
 99/8=1000/99;
 2/9=110/2;
 3/5=16,7=10,11=9,16=1,25=1,30=1,71=1/1,2,3;
 4/5=5,16=3,69=1/1;
 5/5=2,38=5/2;
 8/6=4,10=1/1;
 9/15=2,16=-3/6;
 10/5=1/2;
 7/12=2/1,2,3,16;
 1/7=1,18=20,19=15,80=1/3(-8);
 2/9=110/2;
 6/7=2,8=2,9=2,10=2,22=-1/1;
 99/8=1000/99;
 ----------
 Water freq
 ----------
 Symbolic Z-matrix:
 Charge =  0 Multiplicity = 1
 O
 H                    1    R
 H(Iso=2)             1    R2       2    A
       Variables:
  R                     0.5659325         0.05   
  R2                    0.5659325         0.05   
  A                   103.87321 0         0.     
 

 GradGradGradGradGradGradGradGradGradGradGradGradGradGradGradGradGradGrad
 Berny optimization.
 Initialization pass.
                           ----------------------------
                           !    Initial Parameters    !
                           ! (Angstroms and Degrees)  !
 --------------------------                            --------------------------
 ! Name  Definition              Value          Derivative Info.                !
 --------------------------------------------------------------------------------
 ! R1    R(1,2)                  0.5659         estimate D2E/DX2                !
 ! R2    R(1,3)                  0.5659         estimate D2E/DX2                !
 ! A1    A(2,1,3)              103.8732         estimate D2E/DX2                !
 --------------------------------------------------------------------------------
 Trust Radius=3.00D-01 FncErr=1.00D-07 GrdErr=1.00D-07
 Number of steps in this run=     20 maximum allowed number of steps=    100.
 GradGradGradGradGradGradGradGradGradGradGradGradGradGradGradGradGradGrad

                          Input orientation:                          
 ---------------------------------------------------------------------
 Center     Atomic      Atomic             Coordinates (Angstroms)
 Number     Number       Type             X           Y           Z
 ---------------------------------------------------------------------
      1          8           0        0.000000    0.000000    0.000000
      2          1           0        0.000000    0.000000    0.565929
      3          1           0        0.549420    0.000000   -0.135695
 ---------------------------------------------------------------------
                    Distance matrix (angstroms):
                    1          2          3
     1  O    0.000000
     2  H    0.565929   0.000000
     3  H    0.565929   0.891145   0.000000
 Stoichiometry    H2O
 Framework group  C2V[C2(O),SGV(H2)]
 Deg. of freedom     2
 Full point group                 C2V     NOp   4
 Largest Abelian subgroup         C2V     NOp   4
 Largest concise Abelian subgroup C2      NOp   2
                         Standard orientation:                         
 ---------------------------------------------------------------------
 Center     Atomic      Atomic             Coordinates (Angstroms)
 Number     Number       Type             X           Y           Z
 ---------------------------------------------------------------------
      1          8           0        0.000000    0.000000    0.069783
      2          1           0       -0.000000    0.445572   -0.279131
      3          1           0       -0.000000   -0.445572   -0.279131
 ---------------------------------------------------------------------
 Rotational constants (GHZ):   1964.2004751    787.7814974    562.2714127
 Standard basis: Aug-CC-pVDZ (5D, 7F)
 There are    20 symmetry adapted cartesian basis functions of A1  symmetry.
 There are     4 symmetry adapted cartesian basis functions of A2  symmetry.
 There are     7 symmetry adapted cartesian basis functions of B1  symmetry.
 There are    12 symmetry adapted cartesian basis functions of B2  symmetry.
 There are    18 symmetry adapted basis functions of A1  symmetry.
 There are     4 symmetry adapted basis functions of A2  symmetry.
 There are     7 symmetry adapted basis functions of B1  symmetry.
 There are    12 symmetry adapted basis functions of B2  symmetry.
    41 basis functions,    65 primitive gaussians,    43 cartesian basis functions
     5 alpha electrons        5 beta electrons
       nuclear repulsion energy        15.5547698829 Hartrees.
 NAtoms=    3 NActive=    3 NUniq=    2 SFac= 2.25D+00 NAtFMM=   60 NAOKFM=F Big=F
 Integral buffers will be    131072 words long.
 Raffenetti 1 integral format.
 Two-electron integral symmetry is turned on.
 One-electron integrals computed using PRISM.
 NBasis=    41 RedAO= T EigKep=  2.66D-04  NBF=    18     4     7    12
 NBsUse=    41 1.00D-06 EigRej= -1.00D+00 NBFU=    18     4     7    12
 ExpMin= 2.97D-02 ExpMax= 1.17D+04 ExpMxC= 4.01D+02 IAcc=3 IRadAn=         5 AccDes= 0.00D+00
 Harris functional with IExCor=  205 and IRadAn=       5 diagonalized for initial guess.
 HarFok:  IExCor=  205 AccDes= 0.00D+00 IRadAn=         5 IDoV= 1 UseB2=F ITyADJ=14
 ICtDFT=  3500011 ScaDFX=  1.000000  1.000000  1.000000  1.000000
 FoFCou: FMM=F IPFlag=           0 FMFlag=      100000 FMFlg1=           0
         NFxFlg=           0 DoJE=T BraDBF=F KetDBF=T FulRan=T
         wScrn=  0.000000 ICntrl=     500 IOpCl=  0 I1Cent=   200000004 NGrid=           0
         NMat0=    1 NMatS0=      1 NMatT0=    0 NMatD0=    1 NMtDS0=    0 NMtDT0=    0
 Petite list used in FoFCou.
 Initial guess orbital symmetries:
       Occupied  (A1) (A1) (B2) (A1) (B1)
       Virtual   (A1) (B2) (A1) (B1) (A1) (B2) (B2) (A1) (A2) (A1)
                 (B1) (B2) (A1) (B2) (A1) (B1) (B2) (A1) (A2) (A1)
                 (B1) (B2) (A1) (B2) (A2) (A1) (B1) (B2) (A1) (B2)
                 (B1) (A1) (A2) (A1) (B2) (A1)
 The electronic state of the initial guess is 1-A1.
 Keep R1 ints in memory in symmetry-blocked form, NReq=1235889.
 Requested convergence on RMS density matrix=1.00D-08 within 128 cycles.
 Requested convergence on MAX density matrix=1.00D-06.
 Requested convergence on             energy=1.00D-06.
 No special actions if energy rises.
 SCF Done:  E(RHF) =  -75.1454168212     A.U. after   10 cycles
            NFock= 10  Conv=0.23D-08     -V/T= 1.9471
 ExpMin= 2.97D-02 ExpMax= 1.17D+04 ExpMxC= 4.01D+02 IAcc=3 IRadAn=         5 AccDes= 0.00D+00
 HarFok:  IExCor=  205 AccDes= 0.00D+00 IRadAn=         5 IDoV=-2 UseB2=F ITyADJ=14
 ICtDFT= 12500011 ScaDFX=  1.000000  1.000000  1.000000  1.000000
 Range of M.O.s used for correlation:     2    41
 NBasis=    41 NAE=     5 NBE=     5 NFC=     1 NFV=     0
 NROrb=     40 NOA=     4 NOB=     4 NVA=    36 NVB=    36

 **** Warning!!: The largest alpha MO coefficient is  0.30218909D+02

 Fully direct method using O(ONN) memory.
 JobTyp=1 Pass  1:  I=   2 to   5 NPSUse=  8 ParTrn=T ParDer=T DoDerP=T.
 Spin components of T(2) and E(2):
     alpha-alpha T2 =       0.4979317240D-02 E2=     -0.2395491462D-01
     alpha-beta  T2 =       0.2770692707D-01 E2=     -0.1375979593D+00
     beta-beta   T2 =       0.4979317240D-02 E2=     -0.2395491462D-01
 ANorm=    0.1018658707D+01
 E2 =    -0.1855077885D+00 EUMP2 =    -0.75330924609770D+02
          IDoAtm=111
          Differentiating once with respect to electric field.
                with respect to dipole field.
          Differentiating once with respect to nuclear coordinates.
 Keep R1 ints in memory in symmetry-blocked form, NReq=1218866.
          There are     1 degrees of freedom in the 1st order CPHF.  IDoFFX=0 NUNeed=     1.
 LinEq1:  Iter=  0 NonCon=     1 RMS=5.25D-03 Max=3.51D-02 NDo=     1
 AX will form     1 AO Fock derivatives at one time.
 LinEq1:  Iter=  1 NonCon=     1 RMS=9.61D-04 Max=6.10D-03 NDo=     1
 LinEq1:  Iter=  2 NonCon=     1 RMS=1.49D-04 Max=6.52D-04 NDo=     1
 LinEq1:  Iter=  3 NonCon=     1 RMS=1.92D-05 Max=1.01D-04 NDo=     1
 LinEq1:  Iter=  4 NonCon=     1 RMS=3.02D-06 Max=1.48D-05 NDo=     1
 LinEq1:  Iter=  5 NonCon=     1 RMS=3.63D-07 Max=2.35D-06 NDo=     1
 LinEq1:  Iter=  6 NonCon=     1 RMS=3.99D-08 Max=2.75D-07 NDo=     1
 LinEq1:  Iter=  7 NonCon=     1 RMS=3.43D-09 Max=1.94D-08 NDo=     1
 LinEq1:  Iter=  8 NonCon=     1 RMS=2.70D-10 Max=1.54D-09 NDo=     1
 LinEq1:  Iter=  9 NonCon=     0 RMS=2.59D-11 Max=1.67D-10 NDo=     1
 Linear equations converged to 1.000D-10 1.000D-09 after     9 iterations.
 End of Minotr F.D. properties file   721 does not exist.
 End of Minotr F.D. properties file   722 does not exist.
 End of Minotr F.D. properties file   788 does not exist.

 **********************************************************************

            Population analysis using the MP2 density.

 **********************************************************************

 Orbital symmetries:
       Occupied  (A1) (A1) (B2) (A1) (B1)
       Virtual   (A1) (B2) (A1) (B1) (B2) (A1) (B2) (A1) (A2) (A1)
                 (B1) (B2) (B2) (A1) (A1) (B1) (B2) (A1) (A2) (A1)
                 (B1) (B2) (A1) (B2) (A2) (A1) (B2) (B1) (A1) (B2)
                 (A1) (B1) (A2) (A1) (B2) (A1)
 The electronic state is 1-A1.
 Alpha  occ. eigenvalues --  -20.51613  -1.66585  -0.98938  -0.65973  -0.56174
 Alpha virt. eigenvalues --    0.03874   0.05848   0.15826   0.17409   0.21741
 Alpha virt. eigenvalues --    0.22372   0.37397   0.38988   0.41055   0.46545
 Alpha virt. eigenvalues --    0.49717   0.59818   0.61691   0.68446   1.02859
 Alpha virt. eigenvalues --    1.04094   1.13289   1.13922   1.20031   1.45097
 Alpha virt. eigenvalues --    1.52646   1.58165   2.00113   2.26701   2.36258
 Alpha virt. eigenvalues --    2.44780   2.62752   2.69501   2.96508   3.60950
 Alpha virt. eigenvalues --    3.69364   3.73264   3.90694   4.10415   5.88381
 Alpha virt. eigenvalues --    6.34183
          Condensed to atoms (all electrons):
               1          2          3
     1  O    6.990440   0.131118   0.131118
     2  H    0.131118   1.873746  -0.631201
     3  H    0.131118  -0.631201   1.873746
 Mulliken charges:
               1
     1  O    0.747325
     2  H   -0.373662
     3  H   -0.373662
 Sum of Mulliken charges =   0.00000
 Mulliken charges with hydrogens summed into heavy atoms:
               1
     1  O    0.000000
 Electronic spatial extent (au):  <R**2>=             15.0975
 Charge=             -0.0000 electrons
 Dipole moment (field-independent basis, Debye):
    X=              0.0000    Y=             -0.0000    Z=             -1.6464  Tot=              1.6464
 Quadrupole moment (field-independent basis, Debye-Ang):
   XX=             -6.6696   YY=             -4.9408   ZZ=             -5.8534
   XY=             -0.0000   XZ=             -0.0000   YZ=             -0.0000
 Traceless Quadrupole moment (field-independent basis, Debye-Ang):
   XX=             -0.8483   YY=              0.8805   ZZ=             -0.0322
   XY=             -0.0000   XZ=             -0.0000   YZ=             -0.0000
 Octapole moment (field-independent basis, Debye-Ang**2):
  XXX=              0.0000  YYY=             -0.0000  ZZZ=             -1.4323  XYY=              0.0000
  XXY=             -0.0000  XXZ=             -0.4565  XZZ=              0.0000  YZZ=             -0.0000
  YYZ=             -0.6137  XYZ=             -0.0000
 Hexadecapole moment (field-independent basis, Debye-Ang**3):
 XXXX=             -5.7847 YYYY=             -4.2143 ZZZZ=             -5.0742 XXXY=             -0.0000
 XXXZ=             -0.0000 YYYX=             -0.0000 YYYZ=              0.0000 ZZZX=             -0.0000
 ZZZY=              0.0000 XXYY=             -1.7087 XXZZ=             -1.8196 YYZZ=             -1.5326
 XXYZ=             -0.0000 YYXZ=             -0.0000 ZZXY=             -0.0000
 N-N= 1.555476988289D+01 E-N=-2.116421304592D+02  KE= 7.935623033935D+01
 Symmetry A1   KE= 6.952627788590D+01
 Symmetry A2   KE= 1.848906685738D-02
 Symmetry B1   KE= 4.635147772481D+00
 Symmetry B2   KE= 5.176315614118D+00
 Calling FoFJK, ICntrl=  10002127 FMM=F ISym2X=1 I1Cent= 0 IOpClX= 0 NMat=1 NMatS=1 NMatT=0.
 ***** Axes restored to original set *****
 -------------------------------------------------------------------
 Center     Atomic                   Forces (Hartrees/Bohr)
 Number     Number              X              Y              Z
 -------------------------------------------------------------------
      1        8          -1.928413123    0.000000000   -1.510080566
      2        1          -0.064036300   -0.000000000    2.068133818
      3        1           1.992449424    0.000000000   -0.558053252
 -------------------------------------------------------------------
 Cartesian Forces:  Max     2.068133818 RMS     1.271992172

 GradGradGradGradGradGradGradGradGradGradGradGradGradGradGradGradGradGrad
 Berny optimization.
 FormGI is forming the generalized inverse of G from B-inverse, IUseBI=4.
 Internal  Forces:  Max     2.068133818 RMS     1.689087031
 Search for a local minimum.
 Step number   1 out of a maximum of   20
 All quantities printed in internal units (Hartrees-Bohrs-Radians)
 Mixed Optimization -- RFO/linear search
 Second derivative matrix not updated -- first step.
 The second derivative matrix:
                          R1        R2        A1
           R1           4.69540
           R2           0.00000   4.69540
           A1           0.00000   0.00000   0.16000
 ITU=  0
     Eigenvalues ---    0.16000   4.69540   4.69540
 RFO step:  Lambda=-1.40520869D+00 EMin= 1.60000000D-01
 Linear search not attempted -- first point.
 Maximum step size (   0.300) exceeded in Quadratic search.
    -- Step size scaled by   0.623
 Iteration  1 RMS(Cart)=  0.14577520 RMS(Int)=  0.00945191
 Iteration  2 RMS(Cart)=  0.00886916 RMS(Int)=  0.00002177
 Iteration  3 RMS(Cart)=  0.00001401 RMS(Int)=  0.00000000
 Iteration  4 RMS(Cart)=  0.00000000 RMS(Int)=  0.00000000
 ClnCor:  largest displacement from symmetrization is 4.48D-16 for atom     3.
 Variable       Old X    -DE/DX   Delta X   Delta X   Delta X     New X
                                 (Linear)    (Quad)   (Total)
    R1        1.06945   2.06813   0.00000   0.21125   0.21125   1.28070
    R2        1.06945   2.06813   0.00000   0.21125   0.21125   1.28070
    A1        1.81293   0.06848   0.00000   0.02727   0.02727   1.84020
         Item               Value     Threshold  Converged?
 Maximum Force            2.068134     0.000002     NO 
 RMS     Force            1.689087     0.000001     NO 
 Maximum Displacement     0.163282     0.000006     NO 
 RMS     Displacement     0.154588     0.000004     NO 
 Predicted change in Energy=-6.660634D-01
 GradGradGradGradGradGradGradGradGradGradGradGradGradGradGradGradGradGrad

                          Input orientation:                          
 ---------------------------------------------------------------------
 Center     Atomic      Atomic             Coordinates (Angstroms)
 Number     Number       Type             X           Y           Z
 ---------------------------------------------------------------------
      1          8           0       -0.032338   -0.000000   -0.025323
      2          1           0       -0.041577   -0.000000    0.652334
      3          1           0        0.623335    0.000000   -0.196777
 ---------------------------------------------------------------------
                    Distance matrix (angstroms):
                    1          2          3
     1  O    0.000000
     2  H    0.677720   0.000000
     3  H    0.677720   1.078470   0.000000
 Stoichiometry    H2O
 Framework group  C2V[C2(O),SGV(H2)]
 Deg. of freedom     2
 Full point group                 C2V     NOp   4
 Largest Abelian subgroup         C2V     NOp   4
 Largest concise Abelian subgroup C2      NOp   2
                         Standard orientation:                         
 ---------------------------------------------------------------------
 Center     Atomic      Atomic             Coordinates (Angstroms)
 Number     Number       Type             X           Y           Z
 ---------------------------------------------------------------------
      1          8           0       -0.000000    0.000000    0.082105
      2          1           0        0.000000    0.539235   -0.328419
      3          1           0       -0.000000   -0.539235   -0.328419
 ---------------------------------------------------------------------
 Rotational constants (GHZ):   1408.6565290    541.7845609    391.2901358
 Standard basis: Aug-CC-pVDZ (5D, 7F)
 There are    20 symmetry adapted cartesian basis functions of A1  symmetry.
 There are     4 symmetry adapted cartesian basis functions of A2  symmetry.
 There are     7 symmetry adapted cartesian basis functions of B1  symmetry.
 There are    12 symmetry adapted cartesian basis functions of B2  symmetry.
 There are    18 symmetry adapted basis functions of A1  symmetry.
 There are     4 symmetry adapted basis functions of A2  symmetry.
 There are     7 symmetry adapted basis functions of B1  symmetry.
 There are    12 symmetry adapted basis functions of B2  symmetry.
    41 basis functions,    65 primitive gaussians,    43 cartesian basis functions
     5 alpha electrons        5 beta electrons
       nuclear repulsion energy        12.9837956923 Hartrees.
 NAtoms=    3 NActive=    3 NUniq=    2 SFac= 2.25D+00 NAtFMM=   60 NAOKFM=F Big=F
 Integral buffers will be    131072 words long.
 Raffenetti 1 integral format.
 Two-electron integral symmetry is turned on.
 One-electron integrals computed using PRISM.
 NBasis=    41 RedAO= T EigKep=  6.41D-04  NBF=    18     4     7    12
 NBsUse=    41 1.00D-06 EigRej= -1.00D+00 NBFU=    18     4     7    12
 Initial guess from the checkpoint file:  "HOD_freq.chk"
 B after Tr=    -0.000000    0.000000    0.000000
         Rot=    1.000000    0.000000   -0.000000    0.000000 Ang=   0.00 deg.
 Initial guess orbital symmetries:
       Occupied  (A1) (A1) (B2) (A1) (B1)
       Virtual   (A1) (A1) (A1) (A1) (A1) (A1) (A1) (A1) (A1) (A1)
                 (A1) (A1) (A1) (A1) (A1) (A2) (A2) (A2) (A2) (B1)
                 (B1) (B1) (B1) (B1) (B1) (B2) (B2) (B2) (B2) (B2)
                 (B2) (B2) (B2) (B2) (B2) (B2)
 ExpMin= 2.97D-02 ExpMax= 1.17D+04 ExpMxC= 4.01D+02 IAcc=3 IRadAn=         5 AccDes= 0.00D+00
 Harris functional with IExCor=  205 and IRadAn=       5 diagonalized for initial guess.
 HarFok:  IExCor=  205 AccDes= 0.00D+00 IRadAn=         5 IDoV= 1 UseB2=F ITyADJ=14
 ICtDFT=  3500011 ScaDFX=  1.000000  1.000000  1.000000  1.000000
 FoFCou: FMM=F IPFlag=           0 FMFlag=      100000 FMFlg1=           0
         NFxFlg=           0 DoJE=T BraDBF=F KetDBF=T FulRan=T
         wScrn=  0.000000 ICntrl=     500 IOpCl=  0 I1Cent=   200000004 NGrid=           0
         NMat0=    1 NMatS0=      1 NMatT0=    0 NMatD0=    1 NMtDS0=    0 NMtDT0=    0
 Petite list used in FoFCou.
 Keep R1 ints in memory in symmetry-blocked form, NReq=1235861.
 Requested convergence on RMS density matrix=1.00D-08 within 128 cycles.
 Requested convergence on MAX density matrix=1.00D-06.
 Requested convergence on             energy=1.00D-06.
 No special actions if energy rises.
 SCF Done:  E(RHF) =  -75.7286995057     A.U. after   10 cycles
            NFock= 10  Conv=0.10D-08     -V/T= 1.9725
 ExpMin= 2.97D-02 ExpMax= 1.17D+04 ExpMxC= 4.01D+02 IAcc=3 IRadAn=         5 AccDes= 0.00D+00
 HarFok:  IExCor=  205 AccDes= 0.00D+00 IRadAn=         5 IDoV=-2 UseB2=F ITyADJ=14
 ICtDFT= 12500011 ScaDFX=  1.000000  1.000000  1.000000  1.000000
 Range of M.O.s used for correlation:     2    41
 NBasis=    41 NAE=     5 NBE=     5 NFC=     1 NFV=     0
 NROrb=     40 NOA=     4 NOB=     4 NVA=    36 NVB=    36

 **** Warning!!: The largest alpha MO coefficient is  0.19393310D+02

 Fully direct method using O(ONN) memory.
 JobTyp=1 Pass  1:  I=   2 to   5 NPSUse=  8 ParTrn=T ParDer=T DoDerP=T.
 Spin components of T(2) and E(2):
     alpha-alpha T2 =       0.5674418303D-02 E2=     -0.2519653550D-01
     alpha-beta  T2 =       0.3148773972D-01 E2=     -0.1456365008D+00
     beta-beta   T2 =       0.5674418303D-02 E2=     -0.2519653550D-01
 ANorm=    0.1021193702D+01
 E2 =    -0.1960295718D+00 EUMP2 =    -0.75924729077534D+02
          IDoAtm=111
          Differentiating once with respect to electric field.
                with respect to dipole field.
          Differentiating once with respect to nuclear coordinates.
 Keep R1 ints in memory in symmetry-blocked form, NReq=1218866.
          There are     1 degrees of freedom in the 1st order CPHF.  IDoFFX=0 NUNeed=     1.
 LinEq1:  Iter=  0 NonCon=     1 RMS=5.82D-03 Max=4.10D-02 NDo=     1
 AX will form     1 AO Fock derivatives at one time.
 LinEq1:  Iter=  1 NonCon=     1 RMS=1.07D-03 Max=5.88D-03 NDo=     1
 LinEq1:  Iter=  2 NonCon=     1 RMS=2.32D-04 Max=1.07D-03 NDo=     1
 LinEq1:  Iter=  3 NonCon=     1 RMS=2.51D-05 Max=1.29D-04 NDo=     1
 LinEq1:  Iter=  4 NonCon=     1 RMS=4.14D-06 Max=2.27D-05 NDo=     1
 LinEq1:  Iter=  5 NonCon=     1 RMS=7.25D-07 Max=3.76D-06 NDo=     1
 LinEq1:  Iter=  6 NonCon=     1 RMS=7.28D-08 Max=4.13D-07 NDo=     1
 LinEq1:  Iter=  7 NonCon=     1 RMS=5.36D-09 Max=2.63D-08 NDo=     1
 LinEq1:  Iter=  8 NonCon=     1 RMS=4.74D-10 Max=3.08D-09 NDo=     1
 LinEq1:  Iter=  9 NonCon=     0 RMS=4.34D-11 Max=2.33D-10 NDo=     1
 Linear equations converged to 1.000D-10 1.000D-09 after     9 iterations.
 End of Minotr F.D. properties file   721 does not exist.
 End of Minotr F.D. properties file   722 does not exist.
 End of Minotr F.D. properties file   788 does not exist.
 Calling FoFJK, ICntrl=  10002127 FMM=F ISym2X=1 I1Cent= 0 IOpClX= 0 NMat=1 NMatS=1 NMatT=0.
 ***** Axes restored to original set *****
 -------------------------------------------------------------------
 Center     Atomic                   Forces (Hartrees/Bohr)
 Number     Number              X              Y              Z
 -------------------------------------------------------------------
      1        8          -0.807718186    0.000000000   -0.632499085
      2        1          -0.043205646   -0.000000000    0.887163128
      3        1           0.850923832   -0.000000000   -0.254664043
 -------------------------------------------------------------------
 Cartesian Forces:  Max     0.887163128 RMS     0.540608099

 GradGradGradGradGradGradGradGradGradGradGradGradGradGradGradGradGradGrad
 Berny optimization.
 Using GEDIIS/GDIIS optimizer.
 FormGI is forming the generalized inverse of G from B-inverse, IUseBI=4.
 Internal  Forces:  Max     0.887669683 RMS     0.725144151
 Search for a local minimum.
 Step number   2 out of a maximum of   20
 All quantities printed in internal units (Hartrees-Bohrs-Radians)
 Mixed Optimization -- RFO/linear search
 Update second derivatives using D2CorX and points    1    2
 DE= -5.94D-01 DEPred=-6.66D-01 R= 8.92D-01
 TightC=F SS=  1.41D+00  RLast= 3.00D-01 DXNew= 5.0454D-01 9.0000D-01
 Trust test= 8.92D-01 RLast= 3.00D-01 DXMaxT set to 5.05D-01
 The second derivative matrix:
                          R1        R2        A1
           R1           5.13794
           R2           0.44254   5.13794
           A1           0.05737   0.05737   0.16160
 ITU=  1  0
 Use linear search instead of GDIIS.
 Linear search step of   0.600 exceeds DXMaxT=   0.505 but not scaled.
 Quartic linear search produced a step of  2.00000.
 Iteration  1 RMS(Cart)=  0.15364035 RMS(Int)=  0.18139101
 Iteration  2 RMS(Cart)=  0.14497362 RMS(Int)=  0.01804159
 Iteration  3 RMS(Cart)=  0.01607215 RMS(Int)=  0.00000657
 Iteration  4 RMS(Cart)=  0.00000587 RMS(Int)=  0.00000000
 Iteration  5 RMS(Cart)=  0.00000000 RMS(Int)=  0.00000000
 ClnCor:  largest displacement from symmetrization is 2.23D-16 for atom     3.
 Variable       Old X    -DE/DX   Delta X   Delta X   Delta X     New X
                                 (Linear)    (Quad)   (Total)
    R1        1.28070   0.88767   0.42251   0.00000   0.42251   1.70321
    R2        1.28070   0.88767   0.42251   0.00000   0.42251   1.70321
    A1        1.84020   0.03984   0.05453   0.00000   0.05453   1.89473
         Item               Value     Threshold  Converged?
 Maximum Force            0.887670     0.000002     NO 
 RMS     Force            0.725144     0.000001     NO 
 Maximum Displacement     0.331352     0.000006     NO 
 RMS     Displacement     0.314406     0.000004     NO 
 Predicted change in Energy=-2.468056D-01
 GradGradGradGradGradGradGradGradGradGradGradGradGradGradGradGradGradGrad

                          Input orientation:                          
 ---------------------------------------------------------------------
 Center     Atomic      Atomic             Coordinates (Angstroms)
 Number     Number       Type             X           Y           Z
 ---------------------------------------------------------------------
      1          8           0       -0.093057    0.000000   -0.072870
      2          1           0       -0.129908   -0.000000    0.827678
      3          1           0        0.772385    0.000000   -0.324574
 ---------------------------------------------------------------------
                    Distance matrix (angstroms):
                    1          2          3
     1  O    0.000000
     2  H    0.901301   0.000000
     3  H    0.901301   1.463495   0.000000
 Stoichiometry    H2O
 Framework group  C2V[C2(O),SGV(H2)]
 Deg. of freedom     2
 Full point group                 C2V     NOp   4
 Largest Abelian subgroup         C2V     NOp   4
 Largest concise Abelian subgroup C2      NOp   2
                         Standard orientation:                         
 ---------------------------------------------------------------------
 Center     Atomic      Atomic             Coordinates (Angstroms)
 Number     Number       Type             X           Y           Z
 ---------------------------------------------------------------------
      1          8           0       -0.000000    0.000000    0.105241
      2          1           0       -0.000000    0.731748   -0.420963
      3          1           0       -0.000000   -0.731748   -0.420963
 ---------------------------------------------------------------------
 Rotational constants (GHZ):    846.8167976    297.8827130    220.3653297
 Standard basis: Aug-CC-pVDZ (5D, 7F)
 There are    20 symmetry adapted cartesian basis functions of A1  symmetry.
 There are     4 symmetry adapted cartesian basis functions of A2  symmetry.
 There are     7 symmetry adapted cartesian basis functions of B1  symmetry.
 There are    12 symmetry adapted cartesian basis functions of B2  symmetry.
 There are    18 symmetry adapted basis functions of A1  symmetry.
 There are     4 symmetry adapted basis functions of A2  symmetry.
 There are     7 symmetry adapted basis functions of B1  symmetry.
 There are    12 symmetry adapted basis functions of B2  symmetry.
    41 basis functions,    65 primitive gaussians,    43 cartesian basis functions
     5 alpha electrons        5 beta electrons
       nuclear repulsion energy         9.7555949509 Hartrees.
 NAtoms=    3 NActive=    3 NUniq=    2 SFac= 2.25D+00 NAtFMM=   60 NAOKFM=F Big=F
 Integral buffers will be    131072 words long.
 Raffenetti 1 integral format.
 Two-electron integral symmetry is turned on.
 One-electron integrals computed using PRISM.
 NBasis=    41 RedAO= T EigKep=  2.34D-03  NBF=    18     4     7    12
 NBsUse=    41 1.00D-06 EigRej= -1.00D+00 NBFU=    18     4     7    12
 Initial guess from the checkpoint file:  "HOD_freq.chk"
 B after Tr=    -0.000000   -0.000000   -0.000000
         Rot=    1.000000    0.000000   -0.000000   -0.000000 Ang=   0.00 deg.
 Initial guess orbital symmetries:
       Occupied  (A1) (A1) (B2) (A1) (B1)
       Virtual   (A1) (A1) (A1) (A1) (A1) (A1) (A1) (A1) (A1) (A1)
                 (A1) (A1) (A1) (A1) (A1) (A2) (A2) (A2) (A2) (B1)
                 (B1) (B1) (B1) (B1) (B1) (B2) (B2) (B2) (B2) (B2)
                 (B2) (B2) (B2) (B2) (B2) (B2)
 ExpMin= 2.97D-02 ExpMax= 1.17D+04 ExpMxC= 4.01D+02 IAcc=3 IRadAn=         5 AccDes= 0.00D+00
 Harris functional with IExCor=  205 and IRadAn=       5 diagonalized for initial guess.
 HarFok:  IExCor=  205 AccDes= 0.00D+00 IRadAn=         5 IDoV= 1 UseB2=F ITyADJ=14
 ICtDFT=  3500011 ScaDFX=  1.000000  1.000000  1.000000  1.000000
 FoFCou: FMM=F IPFlag=           0 FMFlag=      100000 FMFlg1=           0
         NFxFlg=           0 DoJE=T BraDBF=F KetDBF=T FulRan=T
         wScrn=  0.000000 ICntrl=     500 IOpCl=  0 I1Cent=   200000004 NGrid=           0
         NMat0=    1 NMatS0=      1 NMatT0=    0 NMatD0=    1 NMtDS0=    0 NMtDT0=    0
 Petite list used in FoFCou.
 Keep R1 ints in memory in symmetry-blocked form, NReq=1235679.
 Requested convergence on RMS density matrix=1.00D-08 within 128 cycles.
 Requested convergence on MAX density matrix=1.00D-06.
 Requested convergence on             energy=1.00D-06.
 No special actions if energy rises.
 SCF Done:  E(RHF) =  -76.0374688797     A.U. after   11 cycles
            NFock= 11  Conv=0.22D-08     -V/T= 1.9983
 ExpMin= 2.97D-02 ExpMax= 1.17D+04 ExpMxC= 4.01D+02 IAcc=3 IRadAn=         5 AccDes= 0.00D+00
 HarFok:  IExCor=  205 AccDes= 0.00D+00 IRadAn=         5 IDoV=-2 UseB2=F ITyADJ=14
 ICtDFT= 12500011 ScaDFX=  1.000000  1.000000  1.000000  1.000000
 Range of M.O.s used for correlation:     2    41
 NBasis=    41 NAE=     5 NBE=     5 NFC=     1 NFV=     0
 NROrb=     40 NOA=     4 NOB=     4 NVA=    36 NVB=    36
 Fully direct method using O(ONN) memory.
 JobTyp=1 Pass  1:  I=   2 to   5 NPSUse=  8 ParTrn=T ParDer=T DoDerP=T.
 Spin components of T(2) and E(2):
     alpha-alpha T2 =       0.7252820159D-02 E2=     -0.2733829973D-01
     alpha-beta  T2 =       0.4067612603D-01 E2=     -0.1596706818D+00
     beta-beta   T2 =       0.7252820159D-02 E2=     -0.2733829973D-01
 ANorm=    0.1027220408D+01
 E2 =    -0.2143472812D+00 EUMP2 =    -0.76251816160940D+02
          IDoAtm=111
          Differentiating once with respect to electric field.
                with respect to dipole field.
          Differentiating once with respect to nuclear coordinates.
 Keep R1 ints in memory in symmetry-blocked form, NReq=1218619.
          There are     1 degrees of freedom in the 1st order CPHF.  IDoFFX=0 NUNeed=     1.
 LinEq1:  Iter=  0 NonCon=     1 RMS=7.64D-03 Max=5.97D-02 NDo=     1
 AX will form     1 AO Fock derivatives at one time.
 LinEq1:  Iter=  1 NonCon=     1 RMS=1.56D-03 Max=8.19D-03 NDo=     1
 LinEq1:  Iter=  2 NonCon=     1 RMS=5.39D-04 Max=3.88D-03 NDo=     1
 LinEq1:  Iter=  3 NonCon=     1 RMS=5.14D-05 Max=2.98D-04 NDo=     1
 LinEq1:  Iter=  4 NonCon=     1 RMS=5.18D-06 Max=2.75D-05 NDo=     1
 LinEq1:  Iter=  5 NonCon=     1 RMS=9.23D-07 Max=4.27D-06 NDo=     1
 LinEq1:  Iter=  6 NonCon=     1 RMS=1.53D-07 Max=7.38D-07 NDo=     1
 LinEq1:  Iter=  7 NonCon=     1 RMS=1.61D-08 Max=1.22D-07 NDo=     1
 LinEq1:  Iter=  8 NonCon=     1 RMS=1.91D-09 Max=1.23D-08 NDo=     1
 LinEq1:  Iter=  9 NonCon=     1 RMS=1.48D-10 Max=9.66D-10 NDo=     1
 LinEq1:  Iter= 10 NonCon=     0 RMS=1.10D-11 Max=6.40D-11 NDo=     1
 Linear equations converged to 1.000D-10 1.000D-09 after    10 iterations.
 End of Minotr F.D. properties file   721 does not exist.
 End of Minotr F.D. properties file   722 does not exist.
 End of Minotr F.D. properties file   788 does not exist.
 Calling FoFJK, ICntrl=  10002127 FMM=F ISym2X=1 I1Cent= 0 IOpClX= 0 NMat=1 NMatS=1 NMatT=0.
 ***** Axes restored to original set *****
 -------------------------------------------------------------------
 Center     Atomic                   Forces (Hartrees/Bohr)
 Number     Number              X              Y              Z
 -------------------------------------------------------------------
      1        8          -0.076148904    0.000000000   -0.059629847
      2        1          -0.000236329   -0.000000000    0.078738812
      3        1           0.076385233   -0.000000000   -0.019108965
 -------------------------------------------------------------------
 Cartesian Forces:  Max     0.078738812 RMS     0.049164222

 GradGradGradGradGradGradGradGradGradGradGradGradGradGradGradGradGradGrad
 Berny optimization.
 Using GEDIIS/GDIIS optimizer.
 FormGI is forming the generalized inverse of G from B-inverse, IUseBI=4.
 Internal  Forces:  Max     0.078682632 RMS     0.064311043
 Search for a local minimum.
 Step number   3 out of a maximum of   20
 All quantities printed in internal units (Hartrees-Bohrs-Radians)
 Mixed Optimization -- RFO/linear search
 Update second derivatives using D2CorX and points    2    3
 The second derivative matrix:
                          R1        R2        A1
           R1           3.30231
           R2          -1.39309   3.30231
           A1           0.04265   0.04265   0.16290
 ITU=  0  1  0
 Use linear search instead of GDIIS.
     Eigenvalues ---    0.16082   1.91130   4.69540
 RFO step:  Lambda=-1.32545784D-03 EMin= 1.60815327D-01
 Quartic linear search produced a step of  0.50391.
 Iteration  1 RMS(Cart)=  0.18117187 RMS(Int)=  0.00959126
 Iteration  2 RMS(Cart)=  0.01092319 RMS(Int)=  0.00004204
 Iteration  3 RMS(Cart)=  0.00002897 RMS(Int)=  0.00000000
 Iteration  4 RMS(Cart)=  0.00000000 RMS(Int)=  0.00000000
 ClnCor:  largest displacement from symmetrization is 4.67D-15 for atom     3.
 Variable       Old X    -DE/DX   Delta X   Delta X   Delta X     New X
                                 (Linear)    (Quad)   (Total)
    R1        1.70321   0.07868   0.21291  -0.00251   0.21040   1.91361
    R2        1.70321   0.07868   0.21291  -0.00251   0.21040   1.91361
    A1        1.89473  -0.00508   0.02748   0.09033   0.11781   2.01254
         Item               Value     Threshold  Converged?
 Maximum Force            0.078683     0.000002     NO 
 RMS     Force            0.064311     0.000001     NO 
 Maximum Displacement     0.190202     0.000006     NO 
 RMS     Displacement     0.191478     0.000004     NO 
 Predicted change in Energy=-5.524985D-02
 GradGradGradGradGradGradGradGradGradGradGradGradGradGradGradGradGradGrad

                          Input orientation:                          
 ---------------------------------------------------------------------
 Center     Atomic      Atomic             Coordinates (Angstroms)
 Number     Number       Type             X           Y           Z
 ---------------------------------------------------------------------
      1          8           0       -0.101232    0.000000   -0.079272
      2          1           0       -0.202130   -0.000000    0.928328
      3          1           0        0.852782    0.000000   -0.418823
 ---------------------------------------------------------------------
                    Distance matrix (angstroms):
                    1          2          3
     1  O    0.000000
     2  H    1.012639   0.000000
     3  H    1.012639   1.711040   0.000000
 Stoichiometry    H2O
 Framework group  C2V[C2(O),SGV(H2)]
 Deg. of freedom     2
 Full point group                 C2V     NOp   4
 Largest Abelian subgroup         C2V     NOp   4
 Largest concise Abelian subgroup C2      NOp   2
                         Standard orientation:                         
 ---------------------------------------------------------------------
 Center     Atomic      Atomic             Coordinates (Angstroms)
 Number     Number       Type             X           Y           Z
 ---------------------------------------------------------------------
      1          8           0       -0.000000    0.000000    0.108356
      2          1           0        0.000000    0.855520   -0.433423
      3          1           0       -0.000000   -0.855520   -0.433423
 ---------------------------------------------------------------------
 Rotational constants (GHZ):    783.1616378    222.2845940    173.1417963
 Standard basis: Aug-CC-pVDZ (5D, 7F)
 There are    20 symmetry adapted cartesian basis functions of A1  symmetry.
 There are     4 symmetry adapted cartesian basis functions of A2  symmetry.
 There are     7 symmetry adapted cartesian basis functions of B1  symmetry.
 There are    12 symmetry adapted cartesian basis functions of B2  symmetry.
 There are    18 symmetry adapted basis functions of A1  symmetry.
 There are     4 symmetry adapted basis functions of A2  symmetry.
 There are     7 symmetry adapted basis functions of B1  symmetry.
 There are    12 symmetry adapted basis functions of B2  symmetry.
    41 basis functions,    65 primitive gaussians,    43 cartesian basis functions
     5 alpha electrons        5 beta electrons
       nuclear repulsion energy         8.6704301936 Hartrees.
 NAtoms=    3 NActive=    3 NUniq=    2 SFac= 2.25D+00 NAtFMM=   60 NAOKFM=F Big=F
 Integral buffers will be    131072 words long.
 Raffenetti 1 integral format.
 Two-electron integral symmetry is turned on.
 One-electron integrals computed using PRISM.
 NBasis=    41 RedAO= T EigKep=  4.01D-03  NBF=    18     4     7    12
 NBsUse=    41 1.00D-06 EigRej= -1.00D+00 NBFU=    18     4     7    12
 Initial guess from the checkpoint file:  "HOD_freq.chk"
 B after Tr=    -0.000000    0.000000   -0.000000
         Rot=    1.000000   -0.000000   -0.000000    0.000000 Ang=   0.00 deg.
 Initial guess orbital symmetries:
       Occupied  (A1) (A1) (B2) (A1) (B1)
       Virtual   (A1) (A1) (A1) (A1) (A1) (A1) (A1) (A1) (A1) (A1)
                 (A1) (A1) (A1) (A1) (A1) (A2) (A2) (A2) (A2) (B1)
                 (B1) (B1) (B1) (B1) (B1) (B2) (B2) (B2) (B2) (B2)
                 (B2) (B2) (B2) (B2) (B2) (B2)
 ExpMin= 2.97D-02 ExpMax= 1.17D+04 ExpMxC= 4.01D+02 IAcc=3 IRadAn=         5 AccDes= 0.00D+00
 Harris functional with IExCor=  205 and IRadAn=       5 diagonalized for initial guess.
 HarFok:  IExCor=  205 AccDes= 0.00D+00 IRadAn=         5 IDoV= 1 UseB2=F ITyADJ=14
 ICtDFT=  3500011 ScaDFX=  1.000000  1.000000  1.000000  1.000000
 FoFCou: FMM=F IPFlag=           0 FMFlag=      100000 FMFlg1=           0
         NFxFlg=           0 DoJE=T BraDBF=F KetDBF=T FulRan=T
         wScrn=  0.000000 ICntrl=     500 IOpCl=  0 I1Cent=   200000004 NGrid=           0
         NMat0=    1 NMatS0=      1 NMatT0=    0 NMatD0=    1 NMtDS0=    0 NMtDT0=    0
 Petite list used in FoFCou.
 Keep R1 ints in memory in symmetry-blocked form, NReq=1235623.
 Requested convergence on RMS density matrix=1.00D-08 within 128 cycles.
 Requested convergence on MAX density matrix=1.00D-06.
 Requested convergence on             energy=1.00D-06.
 No special actions if energy rises.
 SCF Done:  E(RHF) =  -76.0296134203     A.U. after   10 cycles
            NFock= 10  Conv=0.86D-08     -V/T= 2.0042
 ExpMin= 2.97D-02 ExpMax= 1.17D+04 ExpMxC= 4.01D+02 IAcc=3 IRadAn=         5 AccDes= 0.00D+00
 HarFok:  IExCor=  205 AccDes= 0.00D+00 IRadAn=         5 IDoV=-2 UseB2=F ITyADJ=14
 ICtDFT= 12500011 ScaDFX=  1.000000  1.000000  1.000000  1.000000
 Range of M.O.s used for correlation:     2    41
 NBasis=    41 NAE=     5 NBE=     5 NFC=     1 NFV=     0
 NROrb=     40 NOA=     4 NOB=     4 NVA=    36 NVB=    36
 Fully direct method using O(ONN) memory.
 JobTyp=1 Pass  1:  I=   2 to   5 NPSUse=  8 ParTrn=T ParDer=T DoDerP=T.
 Spin components of T(2) and E(2):
     alpha-alpha T2 =       0.8141923827D-02 E2=     -0.2841353439D-01
     alpha-beta  T2 =       0.4646321940D-01 E2=     -0.1669322054D+00
     beta-beta   T2 =       0.8141923827D-02 E2=     -0.2841353439D-01
 ANorm=    0.1030896245D+01
 E2 =    -0.2237592742D+00 EUMP2 =    -0.76253372694478D+02
          IDoAtm=111
          Differentiating once with respect to electric field.
                with respect to dipole field.
          Differentiating once with respect to nuclear coordinates.
 Keep R1 ints in memory in symmetry-blocked form, NReq=1218543.
          There are     1 degrees of freedom in the 1st order CPHF.  IDoFFX=0 NUNeed=     1.
 LinEq1:  Iter=  0 NonCon=     1 RMS=8.84D-03 Max=7.24D-02 NDo=     1
 AX will form     1 AO Fock derivatives at one time.
 LinEq1:  Iter=  1 NonCon=     1 RMS=1.94D-03 Max=1.14D-02 NDo=     1
 LinEq1:  Iter=  2 NonCon=     1 RMS=7.47D-04 Max=5.61D-03 NDo=     1
 LinEq1:  Iter=  3 NonCon=     1 RMS=7.55D-05 Max=4.49D-04 NDo=     1
 LinEq1:  Iter=  4 NonCon=     1 RMS=9.05D-06 Max=3.64D-05 NDo=     1
 LinEq1:  Iter=  5 NonCon=     1 RMS=1.98D-06 Max=8.89D-06 NDo=     1
 LinEq1:  Iter=  6 NonCon=     1 RMS=2.90D-07 Max=1.52D-06 NDo=     1
 LinEq1:  Iter=  7 NonCon=     1 RMS=2.76D-08 Max=2.00D-07 NDo=     1
 LinEq1:  Iter=  8 NonCon=     1 RMS=3.14D-09 Max=2.09D-08 NDo=     1
 LinEq1:  Iter=  9 NonCon=     1 RMS=2.59D-10 Max=1.43D-09 NDo=     1
 LinEq1:  Iter= 10 NonCon=     0 RMS=2.32D-11 Max=1.21D-10 NDo=     1
 Linear equations converged to 1.000D-10 1.000D-09 after    10 iterations.
 End of Minotr F.D. properties file   721 does not exist.
 End of Minotr F.D. properties file   722 does not exist.
 End of Minotr F.D. properties file   788 does not exist.
 Calling FoFJK, ICntrl=  10002127 FMM=F ISym2X=1 I1Cent= 0 IOpClX= 0 NMat=1 NMatS=1 NMatT=0.
 ***** Axes restored to original set *****
 -------------------------------------------------------------------
 Center     Atomic                   Forces (Hartrees/Bohr)
 Number     Number              X              Y              Z
 -------------------------------------------------------------------
      1        8           0.014831162    0.000000000    0.011613824
      2        1           0.021267334   -0.000000000   -0.042435759
      3        1          -0.036098496   -0.000000000    0.030821935
 -------------------------------------------------------------------
 Cartesian Forces:  Max     0.042435759 RMS     0.023240364

 GradGradGradGradGradGradGradGradGradGradGradGradGradGradGradGradGradGrad
 Berny optimization.
 Using GEDIIS/GDIIS optimizer.
 FormGI is forming the generalized inverse of G from B-inverse, IUseBI=4.
 Internal  Forces:  Max     0.044343638 RMS     0.040754192
 Search for a local minimum.
 Step number   4 out of a maximum of   20
 All quantities printed in internal units (Hartrees-Bohrs-Radians)
 Mixed Optimization -- RFO/linear search
 Update second derivatives using D2CorX and points    3    4
 DE= -1.56D-03 DEPred=-5.52D-02 R= 2.82D-02
 Trust test= 2.82D-02 RLast= 3.20D-01 DXMaxT set to 2.52D-01
 The second derivative matrix:
                          R1        R2        A1
           R1           2.63511
           R2          -2.06030   2.63511
           A1           0.01772   0.01772   0.16861
 ITU= -1  0  1  0
 Use linear search instead of GDIIS.
     Eigenvalues ---    0.16707   0.57635   4.69540
 RFO step:  Lambda=-3.82647008D-03 EMin= 1.67073777D-01
 Quartic linear search produced a step of -0.50319.
 Iteration  1 RMS(Cart)=  0.15407623 RMS(Int)=  0.00858735
 Iteration  2 RMS(Cart)=  0.00673816 RMS(Int)=  0.00000800
 Iteration  3 RMS(Cart)=  0.00000842 RMS(Int)=  0.00000000
 Iteration  4 RMS(Cart)=  0.00000000 RMS(Int)=  0.00000000
 ClnCor:  largest displacement from symmetrization is 1.40D-15 for atom     3.
 Variable       Old X    -DE/DX   Delta X   Delta X   Delta X     New X
                                 (Linear)    (Quad)   (Total)
    R1        1.91361  -0.04434  -0.10587   0.01639  -0.08948   1.82413
    R2        1.91361  -0.04434  -0.10587   0.01639  -0.08948   1.82413
    A1        2.01254  -0.03240  -0.05928  -0.14619  -0.20547   1.80707
         Item               Value     Threshold  Converged?
 Maximum Force            0.044344     0.000002     NO 
 RMS     Force            0.040754     0.000001     NO 
 Maximum Displacement     0.166302     0.000006     NO 
 RMS     Displacement     0.158034     0.000004     NO 
 Predicted change in Energy=-5.780523D-03
 GradGradGradGradGradGradGradGradGradGradGradGradGradGradGradGradGradGrad

                          Input orientation:                          
 ---------------------------------------------------------------------
 Center     Atomic      Atomic             Coordinates (Angstroms)
 Number     Number       Type             X           Y           Z
 ---------------------------------------------------------------------
      1          8           0       -0.130405    0.000000   -0.102116
      2          1           0       -0.127575   -0.000000    0.863170
      3          1           0        0.807401    0.000000   -0.330820
 ---------------------------------------------------------------------
                    Distance matrix (angstroms):
                    1          2          3
     1  O    0.000000
     2  H    0.965290   0.000000
     3  H    0.965290   1.516506   0.000000
 Stoichiometry    H2O
 Framework group  C2V[C2(O),SGV(H2)]
 Deg. of freedom     2
 Full point group                 C2V     NOp   4
 Largest Abelian subgroup         C2V     NOp   4
 Largest concise Abelian subgroup C2      NOp   2
                         Standard orientation:                         
 ---------------------------------------------------------------------
 Center     Atomic      Atomic             Coordinates (Angstroms)
 Number     Number       Type             X           Y           Z
 ---------------------------------------------------------------------
      1          8           0        0.000000    0.000000    0.119472
      2          1           0        0.000000    0.758253   -0.477887
      3          1           0       -0.000000   -0.758253   -0.477887
 ---------------------------------------------------------------------
 Rotational constants (GHZ):    671.2304545    271.5773878    193.3490636
 Standard basis: Aug-CC-pVDZ (5D, 7F)
 There are    20 symmetry adapted cartesian basis functions of A1  symmetry.
 There are     4 symmetry adapted cartesian basis functions of A2  symmetry.
 There are     7 symmetry adapted cartesian basis functions of B1  symmetry.
 There are    12 symmetry adapted cartesian basis functions of B2  symmetry.
 There are    18 symmetry adapted basis functions of A1  symmetry.
 There are     4 symmetry adapted basis functions of A2  symmetry.
 There are     7 symmetry adapted basis functions of B1  symmetry.
 There are    12 symmetry adapted basis functions of B2  symmetry.
    41 basis functions,    65 primitive gaussians,    43 cartesian basis functions
     5 alpha electrons        5 beta electrons
       nuclear repulsion energy         9.1202287044 Hartrees.
 NAtoms=    3 NActive=    3 NUniq=    2 SFac= 2.25D+00 NAtFMM=   60 NAOKFM=F Big=F
 Integral buffers will be    131072 words long.
 Raffenetti 1 integral format.
 Two-electron integral symmetry is turned on.
 One-electron integrals computed using PRISM.
 NBasis=    41 RedAO= T EigKep=  2.85D-03  NBF=    18     4     7    12
 NBsUse=    41 1.00D-06 EigRej= -1.00D+00 NBFU=    18     4     7    12
 Initial guess from the checkpoint file:  "HOD_freq.chk"
 B after Tr=     0.000000    0.000000    0.000000
         Rot=    1.000000   -0.000000    0.000000   -0.000000 Ang=   0.00 deg.
 Initial guess orbital symmetries:
       Occupied  (A1) (A1) (B2) (A1) (B1)
       Virtual   (A1) (A1) (A1) (A1) (A1) (A1) (A1) (A1) (A1) (A1)
                 (A1) (A1) (A1) (A1) (A1) (A2) (A2) (A2) (A2) (B1)
                 (B1) (B1) (B1) (B1) (B1) (B2) (B2) (B2) (B2) (B2)
                 (B2) (B2) (B2) (B2) (B2) (B2)
 ExpMin= 2.97D-02 ExpMax= 1.17D+04 ExpMxC= 4.01D+02 IAcc=3 IRadAn=         5 AccDes= 0.00D+00
 Harris functional with IExCor=  205 and IRadAn=       5 diagonalized for initial guess.
 HarFok:  IExCor=  205 AccDes= 0.00D+00 IRadAn=         5 IDoV= 1 UseB2=F ITyADJ=14
 ICtDFT=  3500011 ScaDFX=  1.000000  1.000000  1.000000  1.000000
 FoFCou: FMM=F IPFlag=           0 FMFlag=      100000 FMFlg1=           0
         NFxFlg=           0 DoJE=T BraDBF=F KetDBF=T FulRan=T
         wScrn=  0.000000 ICntrl=     500 IOpCl=  0 I1Cent=   200000004 NGrid=           0
         NMat0=    1 NMatS0=      1 NMatT0=    0 NMatD0=    1 NMtDS0=    0 NMtDT0=    0
 Petite list used in FoFCou.
 Keep R1 ints in memory in symmetry-blocked form, NReq=1235623.
 Requested convergence on RMS density matrix=1.00D-08 within 128 cycles.
 Requested convergence on MAX density matrix=1.00D-06.
 Requested convergence on             energy=1.00D-06.
 No special actions if energy rises.
 SCF Done:  E(RHF) =  -76.0407906980     A.U. after   10 cycles
            NFock= 10  Conv=0.41D-08     -V/T= 2.0019
 ExpMin= 2.97D-02 ExpMax= 1.17D+04 ExpMxC= 4.01D+02 IAcc=3 IRadAn=         5 AccDes= 0.00D+00
 HarFok:  IExCor=  205 AccDes= 0.00D+00 IRadAn=         5 IDoV=-2 UseB2=F ITyADJ=14
 ICtDFT= 12500011 ScaDFX=  1.000000  1.000000  1.000000  1.000000
 Range of M.O.s used for correlation:     2    41
 NBasis=    41 NAE=     5 NBE=     5 NFC=     1 NFV=     0
 NROrb=     40 NOA=     4 NOB=     4 NVA=    36 NVB=    36
 Fully direct method using O(ONN) memory.
 JobTyp=1 Pass  1:  I=   2 to   5 NPSUse=  8 ParTrn=T ParDer=T DoDerP=T.
 Spin components of T(2) and E(2):
     alpha-alpha T2 =       0.7786200490D-02 E2=     -0.2799841030D-01
     alpha-beta  T2 =       0.4407190463D-01 E2=     -0.1641182994D+00
     beta-beta   T2 =       0.7786200490D-02 E2=     -0.2799841030D-01
 ANorm=    0.1029390259D+01
 E2 =    -0.2201151200D+00 EUMP2 =    -0.76260905818080D+02
          IDoAtm=111
          Differentiating once with respect to electric field.
                with respect to dipole field.
          Differentiating once with respect to nuclear coordinates.
 Keep R1 ints in memory in symmetry-blocked form, NReq=1218581.
          There are     1 degrees of freedom in the 1st order CPHF.  IDoFFX=0 NUNeed=     1.
 LinEq1:  Iter=  0 NonCon=     1 RMS=8.33D-03 Max=6.67D-02 NDo=     1
 AX will form     1 AO Fock derivatives at one time.
 LinEq1:  Iter=  1 NonCon=     1 RMS=1.78D-03 Max=1.05D-02 NDo=     1
 LinEq1:  Iter=  2 NonCon=     1 RMS=6.70D-04 Max=5.04D-03 NDo=     1
 LinEq1:  Iter=  3 NonCon=     1 RMS=6.81D-05 Max=4.00D-04 NDo=     1
 LinEq1:  Iter=  4 NonCon=     1 RMS=7.24D-06 Max=3.01D-05 NDo=     1
 LinEq1:  Iter=  5 NonCon=     1 RMS=1.47D-06 Max=6.72D-06 NDo=     1
 LinEq1:  Iter=  6 NonCon=     1 RMS=2.30D-07 Max=1.18D-06 NDo=     1
 LinEq1:  Iter=  7 NonCon=     1 RMS=2.26D-08 Max=1.69D-07 NDo=     1
 LinEq1:  Iter=  8 NonCon=     1 RMS=2.51D-09 Max=1.71D-08 NDo=     1
 LinEq1:  Iter=  9 NonCon=     1 RMS=2.02D-10 Max=1.23D-09 NDo=     1
 LinEq1:  Iter= 10 NonCon=     0 RMS=1.63D-11 Max=9.53D-11 NDo=     1
 Linear equations converged to 1.000D-10 1.000D-09 after    10 iterations.
 End of Minotr F.D. properties file   721 does not exist.
 End of Minotr F.D. properties file   722 does not exist.
 End of Minotr F.D. properties file   788 does not exist.
 Calling FoFJK, ICntrl=  10002127 FMM=F ISym2X=1 I1Cent= 0 IOpClX= 0 NMat=1 NMatS=1 NMatT=0.
 ***** Axes restored to original set *****
 -------------------------------------------------------------------
 Center     Atomic                   Forces (Hartrees/Bohr)
 Number     Number              X              Y              Z
 -------------------------------------------------------------------
      1        8          -0.000116638    0.000000000   -0.000091336
      2        1          -0.000550941   -0.000000000    0.000823709
      3        1           0.000667579   -0.000000000   -0.000732374
 -------------------------------------------------------------------
 Cartesian Forces:  Max     0.000823709 RMS     0.000469753

 GradGradGradGradGradGradGradGradGradGradGradGradGradGradGradGradGradGrad
 Berny optimization.
 Using GEDIIS/GDIIS optimizer.
 FormGI is forming the generalized inverse of G from B-inverse, IUseBI=4.
 Internal  Forces:  Max     0.001009392 RMS     0.000888920
 Search for a local minimum.
 Step number   5 out of a maximum of   20
 All quantities printed in internal units (Hartrees-Bohrs-Radians)
 Mixed Optimization -- En-DIIS/RFO-DIIS
 Update second derivatives using D2CorX and points    3    4    5
 DE= -7.53D-03 DEPred=-5.78D-03 R= 1.30D+00
 TightC=F SS=  1.41D+00  RLast= 2.41D-01 DXNew= 4.2426D-01 7.2393D-01
 Trust test= 1.30D+00 RLast= 2.41D-01 DXMaxT set to 4.24D-01
 The second derivative matrix:
                          R1        R2        A1
           R1           2.59665
           R2          -2.09875   2.59665
           A1           0.00300   0.00300   0.16001
 ITU=  1 -1  0  1
 Use linear search instead of GDIIS.
     Eigenvalues ---    0.15995   0.49795   4.69540
 RFO step:  Lambda=-2.68430081D-07 EMin= 1.59953705D-01
 Quartic linear search produced a step of -0.02032.
 Iteration  1 RMS(Cart)=  0.00355430 RMS(Int)=  0.00000545
 Iteration  2 RMS(Cart)=  0.00000371 RMS(Int)=  0.00000000
 Iteration  3 RMS(Cart)=  0.00000000 RMS(Int)=  0.00000000
 ClnCor:  largest displacement from symmetrization is 4.45D-16 for atom     2.
 Variable       Old X    -DE/DX   Delta X   Delta X   Delta X     New X
                                 (Linear)    (Quad)   (Total)
    R1        1.82413   0.00082   0.00182  -0.00035   0.00146   1.82560
    R2        1.82413   0.00082   0.00182  -0.00035   0.00146   1.82560
    A1        1.80707   0.00101   0.00418   0.00096   0.00513   1.81220
         Item               Value     Threshold  Converged?
 Maximum Force            0.001009     0.000002     NO 
 RMS     Force            0.000889     0.000001     NO 
 Maximum Displacement     0.003756     0.000006     NO 
 RMS     Displacement     0.003554     0.000004     NO 
 Predicted change in Energy=-4.368503D-06
 GradGradGradGradGradGradGradGradGradGradGradGradGradGradGradGradGradGrad

                          Input orientation:                          
 ---------------------------------------------------------------------
 Center     Atomic      Atomic             Coordinates (Angstroms)
 Number     Number       Type             X           Y           Z
 ---------------------------------------------------------------------
      1          8           0       -0.129633    0.000000   -0.101512
      2          1           0       -0.129281   -0.000000    0.864553
      3          1           0        0.808335    0.000000   -0.332807
 ---------------------------------------------------------------------
                    Distance matrix (angstroms):
                    1          2          3
     1  O    0.000000
     2  H    0.966065   0.000000
     3  H    0.966065   1.520788   0.000000
 Stoichiometry    H2O
 Framework group  C2V[C2(O),SGV(H2)]
 Deg. of freedom     2
 Full point group                 C2V     NOp   4
 Largest Abelian subgroup         C2V     NOp   4
 Largest concise Abelian subgroup C2      NOp   2
                         Standard orientation:                         
 ---------------------------------------------------------------------
 Center     Atomic      Atomic             Coordinates (Angstroms)
 Number     Number       Type             X           Y           Z
 ---------------------------------------------------------------------
      1          8           0       -0.000000    0.000000    0.119178
      2          1           0        0.000000    0.760394   -0.476710
      3          1           0       -0.000000   -0.760394   -0.476710
 ---------------------------------------------------------------------
 Rotational constants (GHZ):    673.5683561    270.4432974    192.9658883
 Standard basis: Aug-CC-pVDZ (5D, 7F)
 There are    20 symmetry adapted cartesian basis functions of A1  symmetry.
 There are     4 symmetry adapted cartesian basis functions of A2  symmetry.
 There are     7 symmetry adapted cartesian basis functions of B1  symmetry.
 There are    12 symmetry adapted cartesian basis functions of B2  symmetry.
 There are    18 symmetry adapted basis functions of A1  symmetry.
 There are     4 symmetry adapted basis functions of A2  symmetry.
 There are     7 symmetry adapted basis functions of B1  symmetry.
 There are    12 symmetry adapted basis functions of B2  symmetry.
    41 basis functions,    65 primitive gaussians,    43 cartesian basis functions
     5 alpha electrons        5 beta electrons
       nuclear repulsion energy         9.1122139448 Hartrees.
 NAtoms=    3 NActive=    3 NUniq=    2 SFac= 2.25D+00 NAtFMM=   60 NAOKFM=F Big=F
 Integral buffers will be    131072 words long.
 Raffenetti 1 integral format.
 Two-electron integral symmetry is turned on.
 One-electron integrals computed using PRISM.
 NBasis=    41 RedAO= T EigKep=  2.88D-03  NBF=    18     4     7    12
 NBsUse=    41 1.00D-06 EigRej= -1.00D+00 NBFU=    18     4     7    12
 Initial guess from the checkpoint file:  "HOD_freq.chk"
 B after Tr=    -0.000000    0.000000   -0.000000
         Rot=    1.000000    0.000000    0.000000    0.000000 Ang=   0.00 deg.
 Initial guess orbital symmetries:
       Occupied  (A1) (A1) (B2) (A1) (B1)
       Virtual   (A1) (A1) (A1) (A1) (A1) (A1) (A1) (A1) (A1) (A1)
                 (A1) (A1) (A1) (A1) (A1) (A2) (A2) (A2) (A2) (B1)
                 (B1) (B1) (B1) (B1) (B1) (B2) (B2) (B2) (B2) (B2)
                 (B2) (B2) (B2) (B2) (B2) (B2)
 Keep R1 ints in memory in symmetry-blocked form, NReq=1235623.
 Requested convergence on RMS density matrix=1.00D-08 within 128 cycles.
 Requested convergence on MAX density matrix=1.00D-06.
 Requested convergence on             energy=1.00D-06.
 No special actions if energy rises.
 SCF Done:  E(RHF) =  -76.0407464402     A.U. after    8 cycles
            NFock=  8  Conv=0.14D-08     -V/T= 2.0019
 ExpMin= 2.97D-02 ExpMax= 1.17D+04 ExpMxC= 4.01D+02 IAcc=3 IRadAn=         5 AccDes= 0.00D+00
 HarFok:  IExCor=  205 AccDes= 0.00D+00 IRadAn=         5 IDoV=-2 UseB2=F ITyADJ=14
 ICtDFT= 12500011 ScaDFX=  1.000000  1.000000  1.000000  1.000000
 Range of M.O.s used for correlation:     2    41
 NBasis=    41 NAE=     5 NBE=     5 NFC=     1 NFV=     0
 NROrb=     40 NOA=     4 NOB=     4 NVA=    36 NVB=    36
 Fully direct method using O(ONN) memory.
 JobTyp=1 Pass  1:  I=   2 to   5 NPSUse=  8 ParTrn=T ParDer=T DoDerP=T.
 Spin components of T(2) and E(2):
     alpha-alpha T2 =       0.7791071450D-02 E2=     -0.2800320979D-01
     alpha-beta  T2 =       0.4410602958D-01 E2=     -0.1641568405D+00
     beta-beta   T2 =       0.7791071450D-02 E2=     -0.2800320979D-01
 ANorm=    0.1029411566D+01
 E2 =    -0.2201632601D+00 EUMP2 =    -0.76260909700298D+02
          IDoAtm=111
          Differentiating once with respect to electric field.
                with respect to dipole field.
          Differentiating once with respect to nuclear coordinates.
 Keep R1 ints in memory in symmetry-blocked form, NReq=1218581.
          There are     1 degrees of freedom in the 1st order CPHF.  IDoFFX=0 NUNeed=     1.
 LinEq1:  Iter=  0 NonCon=     1 RMS=8.34D-03 Max=6.68D-02 NDo=     1
 AX will form     1 AO Fock derivatives at one time.
 LinEq1:  Iter=  1 NonCon=     1 RMS=1.79D-03 Max=1.05D-02 NDo=     1
 LinEq1:  Iter=  2 NonCon=     1 RMS=6.71D-04 Max=5.04D-03 NDo=     1
 LinEq1:  Iter=  3 NonCon=     1 RMS=6.82D-05 Max=4.01D-04 NDo=     1
 LinEq1:  Iter=  4 NonCon=     1 RMS=7.27D-06 Max=3.02D-05 NDo=     1
 LinEq1:  Iter=  5 NonCon=     1 RMS=1.48D-06 Max=6.75D-06 NDo=     1
 LinEq1:  Iter=  6 NonCon=     1 RMS=2.31D-07 Max=1.19D-06 NDo=     1
 LinEq1:  Iter=  7 NonCon=     1 RMS=2.27D-08 Max=1.69D-07 NDo=     1
 LinEq1:  Iter=  8 NonCon=     1 RMS=2.52D-09 Max=1.71D-08 NDo=     1
 LinEq1:  Iter=  9 NonCon=     1 RMS=2.02D-10 Max=1.23D-09 NDo=     1
 LinEq1:  Iter= 10 NonCon=     0 RMS=1.63D-11 Max=9.58D-11 NDo=     1
 Linear equations converged to 1.000D-10 1.000D-09 after    10 iterations.
 End of Minotr F.D. properties file   721 does not exist.
 End of Minotr F.D. properties file   722 does not exist.
 End of Minotr F.D. properties file   788 does not exist.
 Calling FoFJK, ICntrl=  10002127 FMM=F ISym2X=1 I1Cent= 0 IOpClX= 0 NMat=1 NMatS=1 NMatT=0.
 ***** Axes restored to original set *****
 -------------------------------------------------------------------
 Center     Atomic                   Forces (Hartrees/Bohr)
 Number     Number              X              Y              Z
 -------------------------------------------------------------------
      1        8           0.000177508    0.000000000    0.000139001
      2        1          -0.000054648   -0.000000000   -0.000113054
      3        1          -0.000122860   -0.000000000   -0.000025947
 -------------------------------------------------------------------
 Cartesian Forces:  Max     0.000177508 RMS     0.000095665

 GradGradGradGradGradGradGradGradGradGradGradGradGradGradGradGradGradGrad
 Berny optimization.
 Using GEDIIS/GDIIS optimizer.
 FormGI is forming the generalized inverse of G from B-inverse, IUseBI=4.
 Internal  Forces:  Max     0.000113074 RMS     0.000108796
 Search for a local minimum.
 Step number   6 out of a maximum of   20
 All quantities printed in internal units (Hartrees-Bohrs-Radians)
 Mixed Optimization -- En-DIIS/RFO-DIIS
 Swapping is turned off.
 Update second derivatives using D2CorX and points    3    4    5    6
 DE= -3.88D-06 DEPred=-4.37D-06 R= 8.89D-01
 TightC=F SS=  1.41D+00  RLast= 5.54D-03 DXNew= 7.1352D-01 1.6609D-02
 Trust test= 8.89D-01 RLast= 5.54D-03 DXMaxT set to 4.24D-01
 The second derivative matrix:
                          R1        R2        A1
           R1           2.62295
           R2          -2.07246   2.62295
           A1           0.02521   0.02521   0.16279
 ITU=  1  1 -1  0
     Eigenvalues ---    0.15954   0.55374   4.69540
 En-DIIS/RFO-DIIS IScMMF=        0 using points:     6    5
 RFO step:  Lambda=-6.27389896D-08.
 DidBck=F Rises=F RFO-DIIS coefs:    1.02442   -0.02442
 Iteration  1 RMS(Cart)=  0.00034241 RMS(Int)=  0.00000010
 Iteration  2 RMS(Cart)=  0.00000011 RMS(Int)=  0.00000000
 ClnCor:  largest displacement from symmetrization is 1.39D-16 for atom     2.
 Variable       Old X    -DE/DX   Delta X   Delta X   Delta X     New X
                                 (Linear)    (Quad)   (Total)
    R1        1.82560  -0.00011   0.00004  -0.00027  -0.00024   1.82536
    R2        1.82560  -0.00011   0.00004  -0.00027  -0.00024   1.82536
    A1        1.81220   0.00010   0.00013   0.00056   0.00069   1.81289
         Item               Value     Threshold  Converged?
 Maximum Force            0.000113     0.000002     NO 
 RMS     Force            0.000109     0.000001     NO 
 Maximum Displacement     0.000335     0.000006     NO 
 RMS     Displacement     0.000342     0.000004     NO 
 Predicted change in Energy=-6.095709D-08
 GradGradGradGradGradGradGradGradGradGradGradGradGradGradGradGradGradGrad

                          Input orientation:                          
 ---------------------------------------------------------------------
 Center     Atomic      Atomic             Coordinates (Angstroms)
 Number     Number       Type             X           Y           Z
 ---------------------------------------------------------------------
      1          8           0       -0.129456    0.000000   -0.101373
      2          1           0       -0.129435   -0.000000    0.864567
      3          1           0        0.808311    0.000000   -0.332960
 ---------------------------------------------------------------------
                    Distance matrix (angstroms):
                    1          2          3
     1  O    0.000000
     2  H    0.965940   0.000000
     3  H    0.965940   1.520999   0.000000
 Stoichiometry    H2O
 Framework group  C2V[C2(O),SGV(H2)]
 Deg. of freedom     2
 Full point group                 C2V     NOp   4
 Largest Abelian subgroup         C2V     NOp   4
 Largest concise Abelian subgroup C2      NOp   2
                         Standard orientation:                         
 ---------------------------------------------------------------------
 Center     Atomic      Atomic             Coordinates (Angstroms)
 Number     Number       Type             X           Y           Z
 ---------------------------------------------------------------------
      1          8           0       -0.000000   -0.000000    0.119110
      2          1           0       -0.000000    0.760500   -0.476440
      3          1           0       -0.000000   -0.760500   -0.476440
 ---------------------------------------------------------------------
 Rotational constants (GHZ):    674.2037056    270.4201049    193.0061838
 Standard basis: Aug-CC-pVDZ (5D, 7F)
 There are    20 symmetry adapted cartesian basis functions of A1  symmetry.
 There are     4 symmetry adapted cartesian basis functions of A2  symmetry.
 There are     7 symmetry adapted cartesian basis functions of B1  symmetry.
 There are    12 symmetry adapted cartesian basis functions of B2  symmetry.
 There are    18 symmetry adapted basis functions of A1  symmetry.
 There are     4 symmetry adapted basis functions of A2  symmetry.
 There are     7 symmetry adapted basis functions of B1  symmetry.
 There are    12 symmetry adapted basis functions of B2  symmetry.
    41 basis functions,    65 primitive gaussians,    43 cartesian basis functions
     5 alpha electrons        5 beta electrons
       nuclear repulsion energy         9.1133026332 Hartrees.
 NAtoms=    3 NActive=    3 NUniq=    2 SFac= 2.25D+00 NAtFMM=   60 NAOKFM=F Big=F
 Integral buffers will be    131072 words long.
 Raffenetti 1 integral format.
 Two-electron integral symmetry is turned on.
 One-electron integrals computed using PRISM.
 NBasis=    41 RedAO= T EigKep=  2.88D-03  NBF=    18     4     7    12
 NBsUse=    41 1.00D-06 EigRej= -1.00D+00 NBFU=    18     4     7    12
 Initial guess from the checkpoint file:  "HOD_freq.chk"
 B after Tr=    -0.000000    0.000000    0.000000
         Rot=    1.000000   -0.000000   -0.000000   -0.000000 Ang=   0.00 deg.
 Initial guess orbital symmetries:
       Occupied  (A1) (A1) (B2) (A1) (B1)
       Virtual   (A1) (A1) (A1) (A1) (A1) (A1) (A1) (A1) (A1) (A1)
                 (A1) (A1) (A1) (A1) (A1) (A2) (A2) (A2) (A2) (B1)
                 (B1) (B1) (B1) (B1) (B1) (B2) (B2) (B2) (B2) (B2)
                 (B2) (B2) (B2) (B2) (B2) (B2)
 Keep R1 ints in memory in symmetry-blocked form, NReq=1235623.
 Requested convergence on RMS density matrix=1.00D-08 within 128 cycles.
 Requested convergence on MAX density matrix=1.00D-06.
 Requested convergence on             energy=1.00D-06.
 No special actions if energy rises.
 SCF Done:  E(RHF) =  -76.0407602798     A.U. after    7 cycles
            NFock=  7  Conv=0.17D-08     -V/T= 2.0019
 ExpMin= 2.97D-02 ExpMax= 1.17D+04 ExpMxC= 4.01D+02 IAcc=3 IRadAn=         5 AccDes= 0.00D+00
 HarFok:  IExCor=  205 AccDes= 0.00D+00 IRadAn=         5 IDoV=-2 UseB2=F ITyADJ=14
 ICtDFT= 12500011 ScaDFX=  1.000000  1.000000  1.000000  1.000000
 Range of M.O.s used for correlation:     2    41
 NBasis=    41 NAE=     5 NBE=     5 NFC=     1 NFV=     0
 NROrb=     40 NOA=     4 NOB=     4 NVA=    36 NVB=    36
 Fully direct method using O(ONN) memory.
 JobTyp=1 Pass  1:  I=   2 to   5 NPSUse=  8 ParTrn=T ParDer=T DoDerP=T.
 Spin components of T(2) and E(2):
     alpha-alpha T2 =       0.7789822290D-02 E2=     -0.2800158324D-01
     alpha-beta  T2 =       0.4409809245D-01 E2=     -0.1641463192D+00
     beta-beta   T2 =       0.7789822290D-02 E2=     -0.2800158324D-01
 ANorm=    0.1029406497D+01
 E2 =    -0.2201494857D+00 EUMP2 =    -0.76260909765508D+02
          IDoAtm=111
          Differentiating once with respect to electric field.
                with respect to dipole field.
          Differentiating once with respect to nuclear coordinates.
 Keep R1 ints in memory in symmetry-blocked form, NReq=1218581.
          There are     1 degrees of freedom in the 1st order CPHF.  IDoFFX=0 NUNeed=     1.
 LinEq1:  Iter=  0 NonCon=     1 RMS=8.33D-03 Max=6.68D-02 NDo=     1
 AX will form     1 AO Fock derivatives at one time.
 LinEq1:  Iter=  1 NonCon=     1 RMS=1.78D-03 Max=1.05D-02 NDo=     1
 LinEq1:  Iter=  2 NonCon=     1 RMS=6.71D-04 Max=5.04D-03 NDo=     1
 LinEq1:  Iter=  3 NonCon=     1 RMS=6.81D-05 Max=4.01D-04 NDo=     1
 LinEq1:  Iter=  4 NonCon=     1 RMS=7.27D-06 Max=3.01D-05 NDo=     1
 LinEq1:  Iter=  5 NonCon=     1 RMS=1.48D-06 Max=6.75D-06 NDo=     1
 LinEq1:  Iter=  6 NonCon=     1 RMS=2.31D-07 Max=1.19D-06 NDo=     1
 LinEq1:  Iter=  7 NonCon=     1 RMS=2.27D-08 Max=1.69D-07 NDo=     1
 LinEq1:  Iter=  8 NonCon=     1 RMS=2.52D-09 Max=1.71D-08 NDo=     1
 LinEq1:  Iter=  9 NonCon=     1 RMS=2.02D-10 Max=1.23D-09 NDo=     1
 LinEq1:  Iter= 10 NonCon=     0 RMS=1.63D-11 Max=9.57D-11 NDo=     1
 Linear equations converged to 1.000D-10 1.000D-09 after    10 iterations.
 End of Minotr F.D. properties file   721 does not exist.
 End of Minotr F.D. properties file   722 does not exist.
 End of Minotr F.D. properties file   788 does not exist.
 Calling FoFJK, ICntrl=  10002127 FMM=F ISym2X=1 I1Cent= 0 IOpClX= 0 NMat=1 NMatS=1 NMatT=0.
 ***** Axes restored to original set *****
 -------------------------------------------------------------------
 Center     Atomic                   Forces (Hartrees/Bohr)
 Number     Number              X              Y              Z
 -------------------------------------------------------------------
      1        8           0.000012840    0.000000000    0.000010055
      2        1          -0.000003016   -0.000000000   -0.000009375
      3        1          -0.000009824   -0.000000000   -0.000000680
 -------------------------------------------------------------------
 Cartesian Forces:  Max     0.000012840 RMS     0.000007149

 GradGradGradGradGradGradGradGradGradGradGradGradGradGradGradGradGradGrad
 Berny optimization.
 Using GEDIIS/GDIIS optimizer.
 FormGI is forming the generalized inverse of G from B-inverse, IUseBI=4.
 Internal  Forces:  Max     0.000009375 RMS     0.000008288
 Search for a local minimum.
 Step number   7 out of a maximum of   20
 All quantities printed in internal units (Hartrees-Bohrs-Radians)
 Mixed Optimization -- En-DIIS/RFO-DIIS
 Swapping is turned off.
 Update second derivatives using D2CorX and points    4    5    6    7
 DE= -6.52D-08 DEPred=-6.10D-08 R= 1.07D+00
 Trust test= 1.07D+00 RLast= 7.63D-04 DXMaxT set to 4.24D-01
 The second derivative matrix:
                          R1        R2        A1
           R1           2.61274
           R2          -2.08266   2.61274
           A1           0.03183   0.03183   0.15934
 ITU=  0  1  1 -1
     Eigenvalues ---    0.15395   0.53546   4.69540
 En-DIIS/RFO-DIIS IScMMF=        0 using points:     7    6    5
 RFO step:  Lambda= 0.00000000D+00.
 DidBck=F Rises=F RFO-DIIS coefs:    1.07497   -0.07668    0.00171
 Iteration  1 RMS(Cart)=  0.00002136 RMS(Int)=  0.00000000
 Iteration  2 RMS(Cart)=  0.00000000 RMS(Int)=  0.00000000
 ClnCor:  largest displacement from symmetrization is 6.75D-16 for atom     3.
 Variable       Old X    -DE/DX   Delta X   Delta X   Delta X     New X
                                 (Linear)    (Quad)   (Total)
    R1        1.82536  -0.00001  -0.00002   0.00000  -0.00002   1.82534
    R2        1.82536  -0.00001  -0.00002  -0.00000  -0.00002   1.82534
    A1        1.81289   0.00001   0.00004  -0.00000   0.00004   1.81293
         Item               Value     Threshold  Converged?
 Maximum Force            0.000009     0.000002     NO 
 RMS     Force            0.000008     0.000001     NO 
 Maximum Displacement     0.000023     0.000006     NO 
 RMS     Displacement     0.000021     0.000004     NO 
 Predicted change in Energy=-3.071301D-10
 GradGradGradGradGradGradGradGradGradGradGradGradGradGradGradGradGradGrad

                          Input orientation:                          
 ---------------------------------------------------------------------
 Center     Atomic      Atomic             Coordinates (Angstroms)
 Number     Number       Type             X           Y           Z
 ---------------------------------------------------------------------
      1          8           0       -0.129444    0.000000   -0.101363
      2          1           0       -0.129444   -0.000000    0.864565
      3          1           0        0.808308    0.000000   -0.332968
 ---------------------------------------------------------------------
                    Distance matrix (angstroms):
                    1          2          3
     1  O    0.000000
     2  H    0.965929   0.000000
     3  H    0.965929   1.521008   0.000000
 Stoichiometry    H2O
 Framework group  C2V[C2(O),SGV(H2)]
 Deg. of freedom     2
 Full point group                 C2V     NOp   4
 Largest Abelian subgroup         C2V     NOp   4
 Largest concise Abelian subgroup C2      NOp   2
                         Standard orientation:                         
 ---------------------------------------------------------------------
 Center     Atomic      Atomic             Coordinates (Angstroms)
 Number     Number       Type             X           Y           Z
 ---------------------------------------------------------------------
      1          8           0        0.000000    0.000000    0.119105
      2          1           0       -0.000000    0.760504   -0.476422
      3          1           0       -0.000000   -0.760504   -0.476422
 ---------------------------------------------------------------------
 Rotational constants (GHZ):    674.2473331    270.4203041    193.0098605
 Standard basis: Aug-CC-pVDZ (5D, 7F)
 There are    20 symmetry adapted cartesian basis functions of A1  symmetry.
 There are     4 symmetry adapted cartesian basis functions of A2  symmetry.
 There are     7 symmetry adapted cartesian basis functions of B1  symmetry.
 There are    12 symmetry adapted cartesian basis functions of B2  symmetry.
 There are    18 symmetry adapted basis functions of A1  symmetry.
 There are     4 symmetry adapted basis functions of A2  symmetry.
 There are     7 symmetry adapted basis functions of B1  symmetry.
 There are    12 symmetry adapted basis functions of B2  symmetry.
    41 basis functions,    65 primitive gaussians,    43 cartesian basis functions
     5 alpha electrons        5 beta electrons
       nuclear repulsion energy         9.1133979710 Hartrees.
 NAtoms=    3 NActive=    3 NUniq=    2 SFac= 2.25D+00 NAtFMM=   60 NAOKFM=F Big=F
 Integral buffers will be    131072 words long.
 Raffenetti 1 integral format.
 Two-electron integral symmetry is turned on.
 One-electron integrals computed using PRISM.
 NBasis=    41 RedAO= T EigKep=  2.88D-03  NBF=    18     4     7    12
 NBsUse=    41 1.00D-06 EigRej= -1.00D+00 NBFU=    18     4     7    12
 Initial guess from the checkpoint file:  "HOD_freq.chk"
 B after Tr=    -0.000000   -0.000000   -0.000000
         Rot=    1.000000    0.000000   -0.000000    0.000000 Ang=   0.00 deg.
 Initial guess orbital symmetries:
       Occupied  (A1) (A1) (B2) (A1) (B1)
       Virtual   (A1) (A1) (A1) (A1) (A1) (A1) (A1) (A1) (A1) (A1)
                 (A1) (A1) (A1) (A1) (A1) (A2) (A2) (A2) (A2) (B1)
                 (B1) (B1) (B1) (B1) (B1) (B2) (B2) (B2) (B2) (B2)
                 (B2) (B2) (B2) (B2) (B2) (B2)
 Keep R1 ints in memory in symmetry-blocked form, NReq=1235623.
 Requested convergence on RMS density matrix=1.00D-08 within 128 cycles.
 Requested convergence on MAX density matrix=1.00D-06.
 Requested convergence on             energy=1.00D-06.
 No special actions if energy rises.
 SCF Done:  E(RHF) =  -76.0407613952     A.U. after    5 cycles
            NFock=  5  Conv=0.42D-08     -V/T= 2.0019
 ExpMin= 2.97D-02 ExpMax= 1.17D+04 ExpMxC= 4.01D+02 IAcc=3 IRadAn=         5 AccDes= 0.00D+00
 HarFok:  IExCor=  205 AccDes= 0.00D+00 IRadAn=         5 IDoV=-2 UseB2=F ITyADJ=14
 ICtDFT= 12500011 ScaDFX=  1.000000  1.000000  1.000000  1.000000
 Range of M.O.s used for correlation:     2    41
 NBasis=    41 NAE=     5 NBE=     5 NFC=     1 NFV=     0
 NROrb=     40 NOA=     4 NOB=     4 NVA=    36 NVB=    36
 Fully direct method using O(ONN) memory.
 JobTyp=1 Pass  1:  I=   2 to   5 NPSUse=  8 ParTrn=T ParDer=T DoDerP=T.
 Spin components of T(2) and E(2):
     alpha-alpha T2 =       0.7789720223D-02 E2=     -0.2800145283D-01
     alpha-beta  T2 =       0.4409743885D-01 E2=     -0.1641454639D+00
[...]
  Property at reference geometry, Unit: Debye
 ------------------------------------------------------------------------
    X=     1.4798    Y=     0.0000    Z=     1.1588
 ------------------------------------------------------------------------
  Temperature:     0K, Unit: Debye
 ------------------------------------------------------------------------
    X=     1.4805    Y=     0.0000    Z=     1.1604
 ------------------------------------------------------------------------
  Temperature:   298K, Unit: Debye
 ------------------------------------------------------------------------
    X=     1.4805    Y=     0.0000    Z=     1.1603

     ==================================================
          Nuclear Magnetic Resonance Spectroscopy
     ==================================================

 Nuclear quadrupole tensors
 --------------------------
 ------------------------------------------------------------------------
  Property at reference geometry
 ------------------------------------------------------------------------
              Nuclear Quadrupole in Principal Axis System
       Atom             a.u.   MegaHertz   Gauss  10(-4) cm-1        Axes
              Baa    -1.3181    95.379    34.034    31.815 -0.6165 -0.0000  0.7873
     1 O(17)  Bbb    -0.2279    16.488     5.883     5.500  0.7873  0.0000  0.6165
              Bcc     1.5460  -111.868   -39.917   -37.315 -0.0000  1.0000  0.0000
 
              Baa    -0.4778  -254.936   -90.968   -85.038 -0.0222 -0.0000  0.9998
     2 H(1)   Bbb     0.2074   110.663    39.487    36.913  0.9998  0.0000  0.0222
              Bcc     0.2704   144.273    51.480    48.124 -0.0000  1.0000  0.0000
 
              Baa    -0.4778   -39.134   -13.964   -13.054  0.9653  0.0000 -0.2613
     3 H(2)   Bbb     0.2074    16.987     6.062     5.666  0.2613 -0.0000  0.9653
              Bcc     0.2704    22.147     7.903     7.387 -0.0000  1.0000  0.0000
 
 ------------------------------------------------------------------------
  Temperature:     0K
 ------------------------------------------------------------------------
              Nuclear Quadrupole in Principal Axis System
       Atom             a.u.   MegaHertz   Gauss  10(-4) cm-1        Axes
              Baa    -1.3105    94.828    33.837    31.631 -0.6181  0.0000  0.7861
     1 O(17)  Bbb    -0.2547    18.431     6.577     6.148  0.7861  0.0000  0.6181
              Bcc     1.5652  -113.259   -40.414   -37.779  0.0000  1.0000 -0.0000
 
              Baa    -0.4676  -249.467   -89.016   -83.213 -0.0229 -0.0000  0.9997
     2 H(1)   Bbb     0.2014   107.476    38.350    35.850  0.9997 -0.0000  0.0229
              Bcc     0.2661   141.991    50.666    47.363  0.0000  1.0000  0.0000
 
              Baa    -0.4727   -38.712   -13.813   -12.913  0.9653  0.0000 -0.2610
     3 H(2)   Bbb     0.2054    16.821     6.002     5.611  0.2610  0.0000  0.9653
              Bcc     0.2673    21.891     7.811     7.302 -0.0000  1.0000 -0.0000
 
 ------------------------------------------------------------------------
  Temperature:   298K
 ------------------------------------------------------------------------
              Nuclear Quadrupole in Principal Axis System
       Atom             a.u.   MegaHertz   Gauss  10(-4) cm-1        Axes
              Baa    -1.3105    94.827    33.837    31.631 -0.6181  0.0000  0.7861
     1 O(17)  Bbb    -0.2547    18.431     6.577     6.148  0.7861  0.0000  0.6181
              Bcc     1.5652  -113.258   -40.413   -37.779  0.0000  1.0000 -0.0000
 
              Baa    -0.4675  -249.459   -89.013   -83.211 -0.0229 -0.0000  0.9997
     2 H(1)   Bbb     0.2014   107.470    38.348    35.848  0.9997 -0.0000  0.0229
              Bcc     0.2661   141.989    50.665    47.362  0.0000  1.0000  0.0000
 
              Baa    -0.4726   -38.712   -13.813   -12.913  0.9653  0.0000 -0.2610
     3 H(2)   Bbb     0.2054    16.821     6.002     5.611  0.2610  0.0000  0.9653
              Bcc     0.2673    21.891     7.811     7.302 -0.0000  1.0000 -0.0000
 

     ==================================================
                     Resonance Analysis
     ==================================================

 Thresholds
 ----------
 Maximum Difference PT2 vs. Variational (cm-1) :      1.000
 Minimum value for Darling-Dennison term (cm-1):     10.000

 Fermi resonances
 ----------------
  No Fermi resonance found

 Darling-Dennison resonances
 ---------------------------
  No Darling-Dennison resonance found

     ==================================================
                     Anharmonic X Matrix
     ==================================================

 PT2 model: Deperturbed VPT2 (DVPT2)
 Ref.: V. Barone, J. Chem. Phys. 122, 1, 014108 (2005)

 Coriolis contributions to X Matrix (in cm^-1)
 ---------------------------------------------
                1             2             3
      1  0.000000D+00
      2  0.228633D-02  0.000000D+00
      3  0.141574D+02  0.461048D+01  0.000000D+00

 3rd Deriv. contributions to X Matrix (in cm^-1)
 -----------------------------------------------
                1             2             3
      1 -0.179270D+03
      2 -0.162405D+02 -0.944419D+02
      3  0.922053D+02  0.213183D+01 -0.140916D+02

 4th Deriv. contributions to X Matrix (in cm^-1)
 -----------------------------------------------
                1             2             3
      1  0.948726D+02
      2  0.224970D+01  0.502685D+02
      3 -0.130847D+03 -0.238585D+02  0.521405D+01

 Total Anharmonic X Matrix (in cm^-1)
 ------------------------------------
                1             2             3
      1 -0.843974D+02
      2 -0.139885D+02 -0.441734D+02
      3 -0.244843D+02 -0.171162D+02 -0.887755D+01

     ==================================================
                Anharmonic Zero Point Energy
     ==================================================

 Anharmonic Zero Point Energy
 ----------------------------
 Harmonic       : cm-1 =  4052.91170 ; Kcal/mol =  11.588 ; KJ/mol =  48.484
 Anharm.Pot.    : cm-1 =   -50.05407 ; Kcal/mol =  -0.143 ; KJ/mol =  -0.599
 Watson+Coriolis: cm-1 =    -8.01373 ; Kcal/mol =  -0.023 ; KJ/mol =  -0.096
 X0F (Im. Freq.): cm-1 =     0.00000 ; Kcal/mol =   0.000 ; KJ/mol =   0.000
 Total Anharm   : cm-1 =  3994.84391 ; Kcal/mol =  11.422 ; KJ/mol =  47.789

     ==================================================
          Vibrational Energies at Anharmonic Level
     ==================================================

 Vibrational Energies and Rotational Constants (in cm^-1)
 --------------------------------------------------------
 Mode(Quanta)      E(harm)     E(anharm)     Aa(z)       Ba(x)       Ca(y)
 Equilibrium Geometry                       22.490367    9.020893    6.437576
 Ground State       4052.912    3994.844     22.503671    9.032594    6.305788
 Fundamental Bands (DE w.r.t. Ground State)
   1(1) active      3873.846    3685.815    21.750738    9.002068    6.226147
   2(1) active      2810.031    2706.132    22.432540    8.825365    6.203338
   3(1) active      1421.946    1383.391    23.354344    9.293749    6.224303
 Overtones (DE w.r.t. Ground State)
   1(2)             7747.692    7202.835    20.997805    8.971543    6.146506
   2(2)             5620.062    5323.917    22.361409    8.618135    6.100888
   3(2)             2843.893    2749.027    24.205016    9.554904    6.142817
 Combination Bands (DE w.r.t. Ground State)
   2(1)    1(1)     6683.877    6377.958    21.679607    8.794839    6.123697
   3(1)    1(1)     5295.792    5044.721    22.601410    9.263224    6.144662
   3(1)    2(1)     4231.977    4072.407    23.283212    9.086520    6.121853

     ==================================================
      Thermodynamic properties and Partition Functions
     ==================================================

 ZPE(harm) = 0.48484D+02 kJ/mol        ZPE(anh)= 0.47789D+02 kJ/mol

 Input values of T(K) and P(atm): 298.15   1.00
                    Harmonic value     SPT anharmonic value
 Qvib               0.32100D-08          0.42491D-08
 QZvib              0.10010D+01          0.10013D+01
 Energy             0.55938D+02          0.55247D+02         kJ/mol
 Enthalpy           0.58417D+02          0.57726D+02         kJ/mol
 Entropy            0.19371D+03          0.19372D+03         J/(mol K)
 Sp.Heat(V)         0.25356D+02          0.25415D+02         J/(mol K)
 Sp.Heat(P)         0.33671D+02          0.33729D+02         J/(mol K)

 T =  298.15 K;  P =   1.00 atm
                    Harmonic value     SPT anharmonic value
 Qvib               0.32100D-08          0.42491D-08
 QZvib              0.10010D+01          0.10013D+01
 Energy             0.55938D+02          0.55247D+02         kJ/mol
 Enthalpy           0.58417D+02          0.57726D+02         kJ/mol
 Entropy            0.19371D+03          0.19372D+03         J/(mol K)
 Sp.Heat(V)         0.25356D+02          0.25415D+02         J/(mol K)
 Sp.Heat(P)         0.33671D+02          0.33729D+02         J/(mol K)

 T =  500.00 K;  P =   1.00 atm
                    Harmonic value     SPT anharmonic value
 Qvib               0.87603D-05          0.10375D-04
 QZvib              0.10173D+01          0.10195D+01
 Energy             0.61255D+02          0.60590D+02         kJ/mol
 Enthalpy           0.65413D+02          0.64747D+02         kJ/mol
 Entropy            0.21158D+03          0.21165D+03         J/(mol K)
 Sp.Heat(V)         0.27532D+02          0.27731D+02         J/(mol K)
 Sp.Heat(P)         0.35846D+02          0.36045D+02         J/(mol K)

 T = 1000.00 K;  P =   1.00 atm
                    Harmonic value     SPT anharmonic value
 Qvib               0.34434D-02          0.37908D-02
 QZvib              0.11734D+01          0.11883D+01
 Energy             0.76729D+02          0.76245D+02         kJ/mol
 Enthalpy           0.85044D+02          0.84560D+02         kJ/mol
 Entropy            0.23852D+03          0.23884D+03         J/(mol K)
 Sp.Heat(V)         0.34335D+02          0.34833D+02         J/(mol K)
 Sp.Heat(P)         0.42650D+02          0.43147D+02         J/(mol K)

 T = 1500.00 K;  P =   1.00 atm
                    Harmonic value     SPT anharmonic value
 Qvib               0.30267D-01          0.32830D-01
 QZvib              0.14767D+01          0.15150D+01
 Energy             0.95331D+02          0.95113D+02         kJ/mol
 Enthalpy           0.10780D+03          0.10758D+03         kJ/mol
 Entropy            0.25690D+03          0.25743D+03         J/(mol K)
 Sp.Heat(V)         0.39706D+02          0.40232D+02         J/(mol K)
 Sp.Heat(P)         0.48020D+02          0.48546D+02         J/(mol K)

 T = 2000.00 K;  P =   1.00 atm
                    Harmonic value     SPT anharmonic value
 Qvib               0.10390D+00          0.11246D+00
 QZvib              0.19179D+01          0.19910D+01
 Energy             0.11609D+03          0.11612D+03         kJ/mol
 Enthalpy           0.13272D+03          0.13275D+03         kJ/mol
 Entropy            0.27122D+03          0.27189D+03         J/(mol K)
 Sp.Heat(V)         0.43067D+02          0.43498D+02         J/(mol K)
 Sp.Heat(P)         0.51382D+02          0.51812D+02         J/(mol K)

     ==================================================
               Anharmonic Transition Moments
     ==================================================

 Electric dipole : Fundamental Bands
 ------------------------------------------------------------------------
  Mode(Quanta)             X                 Y                 Z
    1(1)               -0.107209E-01     -0.876876E-16      0.224472E-01
    2(1)                0.151699E-01      0.122047E-15     -0.946850E-02
    3(1)                0.480276E-01      0.124161E-15      0.170318E-01

 Electric dipole : Overtones
 ------------------------------------------------------------------------
  Mode(Quanta)             X                 Y                 Z
    1(2)                0.147443E-02      0.874205E-17     -0.279804E-02
    2(2)               -0.202589E-02     -0.134893E-16      0.152276E-02
    3(2)                0.436760E-02      0.500302E-16     -0.742337E-02

 Electric dipole : Combination Bands
 ------------------------------------------------------------------------
  Mode(Quanta)             X                 Y                 Z
    2(1)    1(1)       -0.588953E-03      0.225923E-17     -0.123177E-02
    3(1)    1(1)        0.250191E-02      0.589314E-17     -0.360928E-02
    3(1)    2(1)       -0.358538E-02     -0.872160E-17      0.385283E-02
 ERROR: Missing derivatives of the polarizability tensor moment.

     ==================================================
              Anharmonic Infrared Spectroscopy
     ==================================================

 Units: Energies (E) in cm^-1
        Integrated intensity (I) in km.mol^-1

 Fundamental Bands
 -----------------
    Mode(Quanta)       E(harm)   E(anharm)       I(harm)        I(anharm)
     1(1)              3873.846   3685.815     40.02416012     36.93616327
     2(1)              2810.031   2706.132     17.23521259     14.01377595
     3(1)              1421.946   1383.391     57.65661496     58.17413771

 Overtones
 ---------
    Mode(Quanta)       E(harm)   E(anharm)                      I(anharm)
     1(2)              7747.692   7202.835                      1.16678234
     2(2)              5620.062   5323.917                      0.55376888
     3(2)              2843.893   2749.027                      3.30245090

 Combination Bands
 -----------------
    Mode(Quanta)       E(harm)   E(anharm)                      I(anharm)
     2(1)     1(1)     6683.877   6377.958                      0.19253704
     3(1)     1(1)     5295.792   5044.721                      1.57560144
     3(1)     2(1)     4231.977   4072.407                      1.82673531


 GradGradGradGradGradGradGradGradGradGradGradGradGradGradGradGradGradGrad
 Berny optimization.
 Internal  Forces:  Max     0.000000005 RMS     0.000000003
 Search for a local minimum.
 Step number   1 out of a maximum of    2
 All quantities printed in internal units (Hartrees-Bohrs-Radians)
 Second derivative matrix not updated -- analytic derivatives used.
 The second derivative matrix:
                          R1        R2        A1
           R1           0.53833
           R2          -0.01015   0.53833
           A1           0.03108   0.03108   0.15878
 ITU=  0
     Eigenvalues ---    0.15362   0.53334   0.54848
 Angle between quadratic step and forces=  90.00 degrees.
 Linear search not attempted -- first point.
 Iteration  1 RMS(Cart)=  0.00000002 RMS(Int)=  0.00000000
 ClnCor:  largest displacement from symmetrization is 7.08D-15 for atom     3.
 Variable       Old X    -DE/DX   Delta X   Delta X   Delta X     New X
                                 (Linear)    (Quad)   (Total)
    R1        1.82534   0.00000   0.00000   0.00000   0.00000   1.82534
    R2        1.82534   0.00000   0.00000   0.00000   0.00000   1.82534
    A1        1.81293  -0.00000   0.00000  -0.00000  -0.00000   1.81293
         Item               Value     Threshold  Converged?
 Maximum Force            0.000000     0.000002     YES
 RMS     Force            0.000000     0.000001     YES
 Maximum Displacement     0.000000     0.000006     YES
 RMS     Displacement     0.000000     0.000004     YES
 Predicted change in Energy=-7.880560D-17
 Optimization completed.
    -- Stationary point found.
                           ----------------------------
                           !   Optimized Parameters   !
                           ! (Angstroms and Degrees)  !
 --------------------------                            --------------------------
 ! Name  Definition              Value          Derivative Info.                !
 --------------------------------------------------------------------------------
 ! R1    R(1,2)                  0.9659         -DE/DX =    0.0                 !
 ! R2    R(1,3)                  0.9659         -DE/DX =    0.0                 !
 ! A1    A(2,1,3)              103.8732         -DE/DX =    0.0                 !
 --------------------------------------------------------------------------------
 GradGradGradGradGradGradGradGradGradGradGradGradGradGradGradGradGradGrad

 1\1\GINC-ARGON\Freq\RMP2-FC\Aug-CC-pVDZ\H2O1\B3M2A1\16-Mar-2020\0\\#N 
 Geom=AllCheck Guess=TCheck SCRF=Check GenChk RMP2(FC)/Aug-CC-pVDZ Freq
 \\Water freq\\0,1\O,-0.129443833,0.,-0.1013634549\H,-0.1294437628,0.,0
 .864565374\H,0.8083076156,0.,-0.332968125\\Version=ES64L-G09RevE.01\St
 ate=1-A1\HF=-76.0407614\MP2=-76.2609098\RMSD=5.830e-10\RMSF=2.193e-09\
 ZeroPoint=0.0184664\Thermal=0.0213058\Dipole=0.5821816,0.,0.4558883\Di
 poleDeriv=-0.4038097,0.,0.0862276,0.,-0.6570551,0.,0.0862276,0.,-0.446
 4024,0.2640241,0.,-0.0505107,0.,0.3285276,0.,-0.0664012,0.,0.1610819,0
 .1397856,0.,-0.0357169,0.,0.3285276,0.,-0.0198264,0.,0.2853205\Polar=9
 .4708917,0.,8.7753169,-0.3806362,0.,9.6589098\Quadrupole=0.4168815,-1.
 1874576,0.7705762,0.,-0.7160426,0.\PG=C02V [C2(O1),SGV(H2)]\NImag=0\\0
 .53964091,0.,0.,-0.10989990,0.,0.59392680,-0.04255054,0.,-0.03332005,0
 .04765386,0.,0.,0.,0.,0.,0.03095824,0.,-0.52423331,-0.01702612,0.,0.53
 833013,-0.49709036,0.,0.14321995,-0.00510332,0.,-0.01393212,0.50219368
 ,0.,0.,0.,0.,0.,0.,0.,0.,0.07894166,0.,-0.06969349,0.05034617,0.,-0.01
 409682,-0.12928783,0.,0.08379031\\0.,0.,0.,0.,0.,0.,0.,0.,0.\\-0.06291
 886,0.,0.08266526,0.30482846,0.,-0.16659259,0.01319074,0.,-0.20052975,
 0.01436005,0.,-0.04149658,0.,0.,0.00778727,-0.19740309,0.,0.10250945,0
 .17487527,0.,-0.05485523,0.04972811,0.,-0.10429871,-0.02755079,0.,0.02
 252782,-0.02217732,0.,-0.04116868,0.,0.,0.03370931,0.,0.,0.00745937,-0
 .10742537,0.,0.06408313,0.02565448,0.,-0.04765423,0.08177090,0.,-0.016
 42891,-1.37452325,0.,0.21335536,0.39474057,0.,-0.00543756,0.00303480,0
 .,0.00284186,-0.00218637,0.,-0.00313811,0.,0.,0.01043402,-0.03214027,0
 .,0.09302876,0.02974047,0.,-0.11188983,1.37148845,0.,-0.39758243,-0.00
 084842,0.,0.00239980,-1.37064002,0.,-0.21021725,0.,0.,-0.00729591,0.,0
 .,0.21751315,-0.36260030,0.,-0.08759119,-0.03258233,0.,0.01886108,0.39
 518262,0.,0.06873012,0.38572617,0.,0.25779802,-0.03054925,0.,-2.054704
 33,-0.25199459,0.,0.02825547,0.23663170,0.,-0.29155787,0.,0.,0.3006432
 1,-0.01410946,0.,2.01929630,0.01536971,0.,-2.02630219,-0.13373158,0.,0
 .00229378,0.01536289,0.,-0.00126025,0.11836869,0.,0.03375985,0.,0.,-0.
 00908534,0.,0.,-0.02467451,0.04465871,0.,0.03540802,-0.04362519,0.,0.0
 0700588,-0.00103353,0.,-0.04241391,-0.11493473,0.,0.02971261,-0.164096
 31,0.,-0.91860669,-0.15321892,0.,0.18917335,0.17314674,0.,-0.05556432,
 0.,0.,0.05378931,0.07491121,0.,0.90375637,-0.11949749,0.,-0.86253123,0
 .26815363,0.,-0.02507703,-0.01992782,0.,0.04458629,-0.24822582,0.,0.02
 585171,0.,0.,0.00177501,0.,0.,-0.02762673,0.08918511,0.,0.01485030,-0.
 06967586,0.,-0.04122515,-0.01950925,0.,0.02637484,3.39974752,0.,-0.759
 72608,-0.97788645,0.,-0.50420833,-0.01514267,0.,-0.00572887,-0.0021344
 6,0.,-0.00583449,0.,0.,-0.00385885,0.02088947,0.,0.00150401,-0.0171535
 4,0.,0.02058310,-3.38460485,0.,0.98361532,0.01727714,0.,-0.00373592,3.
 36732771,0.,0.76556056,0.,0.,0.00969334,0.,0.,-0.77525390,0.95699698,0
 .,0.50270432,0.02288242,0.,-0.02208711,-0.97987940,0.,-0.48061721,-1.4
 0266880,0.,-1.44884108,0.12548940,0.,6.86797911,1.39198121,0.,-0.12984
 168,-1.36311169,0.,1.45701644,0.,0.,-1.47085724,-0.09088771,0.,-6.8484
 1692,0.08242796,0.,6.82441626,0.01068759,0.,0.00435229,-0.02886952,0.,
 0.00845975,0.01818193,0.,-0.00817537,0.,0.,0.01384080,0.,0.,-0.0056654
 3,-0.03460168,0.,-0.01956221,0.04741372,0.,0.02400065,-0.01281204,0.,-
 0.00443844\\@


 Spring appears, and we are once more children.
                                  -- Anonymous
 Job cpu time:       0 days  0 hours  2 minutes 18.4 seconds.
 File lengths (MBytes):  RWF=     66 Int=      0 D2E=      0 Chk=     38 Scr=      1
 Normal termination of Gaussian 09 at Mon Mar 16 22:46:12 2020.
