 Entering Gaussian System, Link 0=g09
 Input=tbhp_180.gjf
 Output=tbhp_180.log
 Initial command:
 /sw/contrib/gaussian/g09/E01/g09/l1.exe "/scr/Gau-5861.inp" -scrdir="/scr/"
 Entering Link 1 = /sw/contrib/gaussian/g09/E01/g09/l1.exe PID=      5871.
  
 Copyright (c) 1988,1990,1992,1993,1995,1998,2003,2009,2015,
            Gaussian, Inc.  All Rights Reserved.
  
 This is part of the Gaussian(R) 09 program.  It is based on
 the Gaussian(R) 03 system (copyright 2003, Gaussian, Inc.),
 the Gaussian(R) 98 system (copyright 1998, Gaussian, Inc.),
 the Gaussian(R) 94 system (copyright 1995, Gaussian, Inc.),
 the Gaussian 92(TM) system (copyright 1992, Gaussian, Inc.),
 the Gaussian 90(TM) system (copyright 1990, Gaussian, Inc.),
 the Gaussian 88(TM) system (copyright 1988, Gaussian, Inc.),
 the Gaussian 86(TM) system (copyright 1986, Carnegie Mellon
 University), and the Gaussian 82(TM) system (copyright 1983,
 Carnegie Mellon University). Gaussian is a federally registered
 trademark of Gaussian, Inc.
  
 This software contains proprietary and confidential information,
 including trade secrets, belonging to Gaussian, Inc.
  
 This software is provided under written license and may be
 used, copied, transmitted, or stored only in accord with that
 written license.
  
 The following legend is applicable only to US Government
 contracts under FAR:
  
                    RESTRICTED RIGHTS LEGEND
  
 Use, reproduction and disclosure by the US Government is
 subject to restrictions as set forth in subparagraphs (a)
 and (c) of the Commercial Computer Software - Restricted
 Rights clause in FAR 52.227-19.
  
 Gaussian, Inc.
 340 Quinnipiac St., Bldg. 40, Wallingford CT 06492
  
  
 ---------------------------------------------------------------
 Warning -- This program may not be used in any manner that
 competes with the business of Gaussian, Inc. or will provide
 assistance to any competitor of Gaussian, Inc.  The licensee
 of this program is prohibited from giving any competitor of
 Gaussian, Inc. access to this program.  By using this program,
 the user acknowledges that Gaussian, Inc. is engaged in the
 business of creating and licensing software in the field of
 computational chemistry and represents and warrants to the
 licensee that it is not a competitor of Gaussian, Inc. and that
 it will not use this program in any manner prohibited above.
 ---------------------------------------------------------------
  

 Cite this work as:
 Gaussian 09, Revision E.01,
 M. J. Frisch, G. W. Trucks, H. B. Schlegel, G. E. Scuseria, 
 M. A. Robb, J. R. Cheeseman, G. Scalmani, V. Barone, B. Mennucci, 
 G. A. Petersson, H. Nakatsuji, M. Caricato, X. Li, H. P. Hratchian, 
 A. F. Izmaylov, J. Bloino, G. Zheng, J. L. Sonnenberg, M. Hada, 
 M. Ehara, K. Toyota, R. Fukuda, J. Hasegawa, M. Ishida, T. Nakajima, 
 Y. Honda, O. Kitao, H. Nakai, T. Vreven, J. A. Montgomery, Jr., 
 J. E. Peralta, F. Ogliaro, M. Bearpark, J. J. Heyd, E. Brothers, 
 K. N. Kudin, V. N. Staroverov, T. Keith, R. Kobayashi, J. Normand, 
 K. Raghavachari, A. Rendell, J. C. Burant, S. S. Iyengar, J. Tomasi, 
 M. Cossi, N. Rega, J. M. Millam, M. Klene, J. E. Knox, J. B. Cross, 
 V. Bakken, C. Adamo, J. Jaramillo, R. Gomperts, R. E. Stratmann, 
 O. Yazyev, A. J. Austin, R. Cammi, C. Pomelli, J. W. Ochterski, 
 R. L. Martin, K. Morokuma, V. G. Zakrzewski, G. A. Voth, 
 P. Salvador, J. J. Dannenberg, S. Dapprich, A. D. Daniels, 
 O. Farkas, J. B. Foresman, J. V. Ortiz, J. Cioslowski, 
 and D. J. Fox, Gaussian, Inc., Wallingford CT, 2013.
 
 ******************************************
 Gaussian 09:  ES64L-G09RevE.01 30-Nov-2015
                15-Jun-2020 
 ******************************************
 %nproc=28
 Will use up to   28 processors via shared memory.
 %mem=120GB
 %chk=/gscratch/ilahie/mccoygrp/data/TBHP/tbhp_180.chk
 -------------------------------------------------------------------
 #P opt=(z-matrix) cc-pvtz b2plypd3 integral=ultrafine scf=verytight
 -------------------------------------------------------------------
 1/10=7,18=40,38=1/1,3;
 2/12=2,17=6,18=5,29=3,40=1/2;
 3/5=16,6=1,11=9,16=1,25=1,30=1,71=1,74=-60,75=-5/1,2,3;
 4//1;
 5/5=2,17=3,38=5/2;
 8/6=4,10=1/1;
 9/15=2,16=-3/6;
 10/5=1/2;
 6/7=2,8=2,9=2,10=2/1;
 7/12=2,29=1/1,2,3,16;
 1/10=7,18=40/3(2);
 2/29=3/2;
 99//99;
 2/29=3/2;
 3/5=16,6=1,11=9,16=1,25=1,30=1,71=1,74=-60,75=-5/1,2,3;
 4/5=5,16=3,69=1/1;
 5/5=2,17=3,38=5/2;
 8/6=4,10=1/1;
 9/15=2,16=-3/6;
 10/5=1/2;
 7/12=2/1,2,3,16;
 1/18=40/3(-8);
 2/29=3/2;
 6/7=2,8=2,9=2,10=2/1;
 99//99;
 Leave Link    1 at Mon Jun 15 17:32:36 2020, MaxMem= 16106127360 cpu:         3.2
 (Enter /sw/contrib/gaussian/g09/E01/g09/l101.exe)
 -----
 title
 -----
 Symbolic Z-matrix:
 Charge =  0 Multiplicity = 1
 C
 C                    1    B1
 H                    2    B2       1    A1
 H                    2    B3       1    A2       3    D1       0
 O                    1    B4       2    A3       3    D2       0
 O                    5    B5       1    A4       2    D3       0
 H                    6    B6       5    A5       1    D4       0
 C                    1    B7       5    A6       6    D5       0
 H                    8    B8       1    A7       5    D6       0
 H                    8    B9       1    A8       5    D7       0
 H                    8    B10      1    A9       5    D8       0
 C                    1    B11      5    A10      6    D9       0
 H                    12   B12      1    A11      5    D10      0
 H                    12   B13      1    A12      5    D11      0
 H                    12   B14      1    A13      5    D12      0
 H                    2    B15      1    A14      5    D13      0
       Variables:
  B1                    1.52427 -1        0.     
  B2                    1.08654 -1        0.     
  B3                    1.08869 -1        0.     
  B4                    1.43846 -1        0.     
  B5                    1.46917 -1        0.     
  B6                    0.76385Scan 27    0.02   
  B7                    1.5238  -1        0.     
  B8                    1.08827 -1        0.     
  B9                    1.08826 -1        0.     
  B10                   1.08852 -1        0.     
  B11                   1.52426 -1        0.     
  B12                   1.08871 -1        0.     
  B13                   1.08932 -1        0.     
  B14                   1.08651 -1        0.     
  B15                   1.08933 -1        0.     
  A1                  110.75165 -1        0.     
  A2                  110.16131 -1        0.     
  A3                  110.30189 -1        0.     
  A4                  107.04989 -1        0.     
  A5                   97.75057 -1        0.     
  A6                  101.81414 -1        0.     
  A7                  110.61896 -1        0.     
  A8                  110.6198  -1        0.     
  A9                  109.4843  -1        0.     
  A10                 110.31017 -1        0.     
  A11                 110.16825 -1        0.     
  A12                 110.03662 -1        0.     
  A13                 110.74565 -1        0.     
  A14                 110.0502  -1        0.     
  D1                  120.13933 -1        0.     
  D2                  -64.40927 -1        0.     
  D3                   61.95261 -1        0.     
  D4                  180.      -1        0.     
  D5                 -180.02255 -1        0.     
  D6                   60.3615  -1        0.     
  D7                  -60.28073 -1        0.     
  D8                  180.04093 -1        0.     
  D9                  -61.98889 -1        0.     
  D10                 -55.80499 -1        0.     
  D11                -175.58268 -1        0.     
  D12                  64.34987 -1        0.     
  D13                 175.53075 -1        0.     
 
 NAtoms=     16 NQM=       16 NQMF=       0 NMMI=      0 NMMIF=      0
                NMic=       0 NMicF=      0.
                    Isotopes and Nuclear Properties:
 (Nuclear quadrupole moments (NQMom) in fm**2, nuclear magnetic moments (NMagM)
  in nuclear magnetons)

  Atom         1           2           3           4           5           6           7           8           9          10
 IAtWgt=          12          12           1           1          16          16           1          12           1           1
 AtmWgt=  12.0000000  12.0000000   1.0078250   1.0078250  15.9949146  15.9949146   1.0078250  12.0000000   1.0078250   1.0078250
 NucSpn=           0           0           1           1           0           0           1           0           1           1
 AtZEff=   0.0000000   0.0000000   0.0000000   0.0000000   0.0000000   0.0000000   0.0000000   0.0000000   0.0000000   0.0000000
 NQMom=    0.0000000   0.0000000   0.0000000   0.0000000   0.0000000   0.0000000   0.0000000   0.0000000   0.0000000   0.0000000
 NMagM=    0.0000000   0.0000000   2.7928460   2.7928460   0.0000000   0.0000000   2.7928460   0.0000000   2.7928460   2.7928460
 AtZNuc=   6.0000000   6.0000000   1.0000000   1.0000000   8.0000000   8.0000000   1.0000000   6.0000000   1.0000000   1.0000000

  Atom        11          12          13          14          15          16
 IAtWgt=           1          12           1           1           1           1
 AtmWgt=   1.0078250  12.0000000   1.0078250   1.0078250   1.0078250   1.0078250
 NucSpn=           1           0           1           1           1           1
 AtZEff=   0.0000000   0.0000000   0.0000000   0.0000000   0.0000000   0.0000000
 NQMom=    0.0000000   0.0000000   0.0000000   0.0000000   0.0000000   0.0000000
 NMagM=    2.7928460   0.0000000   2.7928460   2.7928460   2.7928460   2.7928460
 AtZNuc=   1.0000000   6.0000000   1.0000000   1.0000000   1.0000000   1.0000000
 Leave Link  101 at Mon Jun 15 17:32:37 2020, MaxMem= 16106127360 cpu:         2.1
 (Enter /sw/contrib/gaussian/g09/E01/g09/l103.exe)

 GradGradGradGradGradGradGradGradGradGradGradGradGradGradGradGradGradGrad
 Berny optimization.
 Initialization pass.
                       ----------------------------
                       !    Initial Parameters    !
                       ! (Angstroms and Degrees)  !
 ----------------------                            ----------------------
 !      Name          Value   Derivative information (Atomic Units)     !
 ------------------------------------------------------------------------
 !       B1          1.5243   Frozen                                    !
 !       B2          1.0865   Frozen                                    !
 !       B3          1.0887   Frozen                                    !
 !       B4          1.4385   Frozen                                    !
 !       B5          1.4692   Frozen                                    !
 !       B6          0.7639   Scan                                      !
 !       B7          1.5238   Frozen                                    !
 !       B8          1.0883   Frozen                                    !
 !       B9          1.0883   Frozen                                    !
 !       B10         1.0885   Frozen                                    !
 !       B11         1.5243   Frozen                                    !
 !       B12         1.0887   Frozen                                    !
 !       B13         1.0893   Frozen                                    !
 !       B14         1.0865   Frozen                                    !
 !       B15         1.0893   Frozen                                    !
 !       A1        110.7516   Frozen                                    !
 !       A2        110.1613   Frozen                                    !
 !       A3        110.3019   Frozen                                    !
 !       A4        107.0499   Frozen                                    !
 !       A5         97.7506   Frozen                                    !
 !       A6        101.8141   Frozen                                    !
 !       A7        110.619    Frozen                                    !
 !       A8        110.6198   Frozen                                    !
 !       A9        109.4843   Frozen                                    !
 !       A10       110.3102   Frozen                                    !
 !       A11       110.1683   Frozen                                    !
 !       A12       110.0366   Frozen                                    !
 !       A13       110.7456   Frozen                                    !
 !       A14       110.0502   Frozen                                    !
 !       D1        120.1393   Frozen                                    !
 !       D2        -64.4093   Frozen                                    !
 !       D3         61.9526   Frozen                                    !
 !       D4        180.0      Frozen                                    !
 !       D5       -180.0225   Frozen                                    !
 !       D6         60.3615   Frozen                                    !
 !       D7        -60.2807   Frozen                                    !
 !       D8        180.0409   Frozen                                    !
 !       D9        -61.9889   Frozen                                    !
 !       D10       -55.805    Frozen                                    !
 !       D11      -175.5827   Frozen                                    !
 !       D12        64.3499   Frozen                                    !
 !       D13       175.5308   Frozen                                    !
 ------------------------------------------------------------------------
 Trust Radius=3.00D-01 FncErr=1.00D-07 GrdErr=1.00D-07
 Number of optimizations in scan=  28
 Number of steps in this run=     52 maximum allowed number of steps=    100.
 GradGradGradGradGradGradGradGradGradGradGradGradGradGradGradGradGradGrad

 Leave Link  103 at Mon Jun 15 17:32:37 2020, MaxMem= 16106127360 cpu:         0.4
 (Enter /sw/contrib/gaussian/g09/E01/g09/l202.exe)
 ---------------------------------------------------------------------------------------------------
                            Z-MATRIX (ANGSTROMS AND DEGREES)
   CD    Cent   Atom    N1       Length/X        N2       Alpha/Y        N3        Beta/Z          J
 ---------------------------------------------------------------------------------------------------
      1      1  C 
      2      2  C        1   1.524270(     1)
      3      3  H        2   1.086540(     2)      1  110.752(    16)
      4      4  H        2   1.088690(     3)      1  110.161(    17)      3  120.139(    30)      0
      5      5  O        1   1.438460(     4)      2  110.302(    18)      3  -64.409(    31)      0
      6      6  O        5   1.469170(     5)      1  107.050(    19)      2   61.953(    32)      0
      7      7  H        6   0.763850(     6)      5   97.751(    20)      1  180.000(    33)      0
      8      8  C        1   1.523800(     7)      5  101.814(    21)      6 -180.023(    34)      0
      9      9  H        8   1.088270(     8)      1  110.619(    22)      5   60.362(    35)      0
     10     10  H        8   1.088260(     9)      1  110.620(    23)      5  -60.281(    36)      0
     11     11  H        8   1.088520(    10)      1  109.484(    24)      5  180.041(    37)      0
     12     12  C        1   1.524260(    11)      5  110.310(    25)      6  -61.989(    38)      0
     13     13  H       12   1.088710(    12)      1  110.168(    26)      5  -55.805(    39)      0
     14     14  H       12   1.089320(    13)      1  110.037(    27)      5 -175.583(    40)      0
     15     15  H       12   1.086510(    14)      1  110.746(    28)      5   64.350(    41)      0
     16     16  H        2   1.089330(    15)      1  110.050(    29)      5  175.531(    42)      0
 ---------------------------------------------------------------------------------------------------
                         Z-Matrix orientation:                         
 ---------------------------------------------------------------------
 Center     Atomic      Atomic             Coordinates (Angstroms)
 Number     Number       Type             X           Y           Z
 ---------------------------------------------------------------------
      1          6           0        0.000000    0.000000    0.000000
      2          6           0        0.000000    0.000000    1.524270
      3          1           0        1.016051    0.000000    1.909251
      4          1           0       -0.513142    0.883817    1.899503
      5          8           0        0.582730    1.216756   -0.499098
      6          8           0        1.974253    1.252353   -0.029143
      7          1           0        2.172679    1.918874   -0.345122
      8          6           0       -1.418885    0.085510   -0.549016
      9          1           0       -1.407336    0.123999   -1.636544
     10          1           0       -1.922932    0.973179   -0.171801
     11          1           0       -1.982019   -0.792617   -0.238130
     12          6           0        0.735634   -1.209541   -0.564998
     13          1           0        0.736718   -1.173635   -1.653115
     14          1           0        0.243255   -2.127790   -0.247191
     15          1           0        1.765049   -1.230525   -0.218056
     16          1           0       -0.512582   -0.885675    1.897740
 ---------------------------------------------------------------------
                    Distance matrix (angstroms):
                    1          2          3          4          5
     1  C    0.000000
     2  C    1.524270   0.000000
     3  H    2.162775   1.086540   0.000000
     4  H    2.156979   1.088690   1.766255   0.000000
     5  O    1.438460   2.431889   2.732838   2.658019   0.000000
     6  O    2.338142   2.806983   2.498781   3.169009   1.469170
     7  H    2.919198   3.449237   3.178374   3.650112   1.744883
     8  C    1.523800   2.513775   3.461113   2.730002   2.299711
     9  H    2.162001   3.462184   4.296608   3.725659   2.539344
    10  H    2.162004   2.742518   3.730345   2.507149   2.538660
    11  H    2.147870   2.768158   3.771990   3.088285   3.268581
    12  C    1.524260   2.523725   2.768308   3.466316   2.432003
    13  H    2.157072   3.466402   3.761103   4.291427   2.658841
    14  H    2.155868   2.779341   3.126491   3.774944   3.371155
    15  H    2.162669   2.768626   2.569168   3.760937   2.732407
    16  H    2.156056   1.089330   1.766712   1.769493   3.371165
                    6          7          8          9         10
     6  O    0.000000
     7  H    0.763850   0.000000
     8  C    3.625628   4.037590   0.000000
     9  H    3.910507   4.207833   1.088270   0.000000
    10  H    3.909775   4.206947   1.088260   1.769863   0.000000
    11  H    4.458437   4.962373   1.088520   1.768051   1.768028
    12  C    2.807532   3.449699   2.513835   2.742054   3.462202
    13  H    3.170834   3.651909   2.729672   2.506212   3.725163
    14  H    3.803848   4.484167   2.784332   3.118542   3.783392
    15  H    2.498827   3.178211   3.461057   3.729728   4.296470
    16  H    3.803733   4.484033   2.784098   3.783013   3.118882
                   11         12         13         14         15
    11  H    0.000000
    12  C    2.768809   0.000000
    13  H    3.088509   1.088710   0.000000
    14  H    2.595114   1.089320   1.769333   0.000000
    15  H    3.772623   1.086510   1.766379   1.766858   0.000000
    16  H    2.594195   2.779929   3.775214   2.591306   3.127797
                   16
    16  H    0.000000
 Stoichiometry    C4H10O2
 Framework group  C1[X(C4H10O2)]
 Deg. of freedom    42
 Full point group                 C1      NOp   1
 Largest Abelian subgroup         C1      NOp   1
 Largest concise Abelian subgroup C1      NOp   1
                         Standard orientation:                         
 ---------------------------------------------------------------------
 Center     Atomic      Atomic             Coordinates (Angstroms)
 Number     Number       Type             X           Y           Z
 ---------------------------------------------------------------------
      1          6           0        0.383082    0.000081    0.030768
      2          6           0        0.359717   -1.260339    0.887620
      3          1           0       -0.525623   -1.281542    1.517138
      4          1           0        0.355679   -2.145203    0.253393
      5          8           0       -0.722749   -0.001239   -0.889180
      6          8           0       -1.952199   -0.000001   -0.084873
      7          1           0       -2.452760   -0.000836   -0.661852
      8          6           0        1.576802   -0.001954   -0.916330
      9          1           0        1.564209    0.882213   -1.550697
     10          1           0        1.562933   -0.887649   -1.548519
     11          1           0        2.499040   -0.001924   -0.338098
     12          6           0        0.360507    1.263382    0.883368
     13          1           0        0.358273    2.146217    0.246276
     14          1           0        1.241482    1.297654    1.523154
     15          1           0       -0.525312    1.287621    1.512050
     16          1           0        1.241020   -1.293650    1.527023
 ---------------------------------------------------------------------
 Rotational constants (GHZ):      4.5048953      2.7962217      2.7867062
 Leave Link  202 at Mon Jun 15 17:32:37 2020, MaxMem= 16106127360 cpu:         0.4
 (Enter /sw/contrib/gaussian/g09/E01/g09/l301.exe)
 Standard basis: CC-pVTZ (5D, 7F)
 Ernie: Thresh=  0.10000D-02 Tol=  0.10000D-05 Strict=F.
 Ernie:  18 primitive shells out of 236 were deleted.
 There are   360 symmetry adapted cartesian basis functions of A   symmetry.
 There are   320 symmetry adapted basis functions of A   symmetry.
   320 basis functions,   482 primitive gaussians,   360 cartesian basis functions
    25 alpha electrons       25 beta electrons
       nuclear repulsion energy       272.3474660697 Hartrees.
 IExCor=  419 DFT=T Ex+Corr=B2PLYPD3 ExCW=0 ScaHFX=  0.530000
 ScaDFX=  0.470000  0.470000  0.730000  0.730000 ScalE2=  0.270000  0.270000
 IRadAn=      5 IRanWt=     -1 IRanGd=            0 ICorTp=0 IEmpDi=141
 NAtoms=   16 NActive=   16 NUniq=   16 SFac= 1.00D+00 NAtFMM=   60 NAOKFM=F Big=F
 Integral buffers will be    131072 words long.
 Regular integral format.
 Two-electron integral symmetry is turned on.
 R6Disp:  Grimme-D3(BJ) Dispersion energy=       -0.0089947219 Hartrees.
 Nuclear repulsion after empirical dispersion term =      272.3384713478 Hartrees.
 Leave Link  301 at Mon Jun 15 17:32:37 2020, MaxMem= 16106127360 cpu:         1.3
 (Enter /sw/contrib/gaussian/g09/E01/g09/l302.exe)
 NPDir=0 NMtPBC=     1 NCelOv=     1 NCel=       1 NClECP=     1 NCelD=      1
         NCelK=      1 NCelE2=     1 NClLst=     1 CellRange=     0.0.
 One-electron integrals computed using PRISM.
 NBasis=   320 RedAO= T EigKep=  5.32D-04  NBF=   320
 NBsUse=   320 1.00D-06 EigRej= -1.00D+00 NBFU=   320
 Precomputing XC quadrature grid using
 IXCGrd= 4 IRadAn=           5 IRanWt=          -1 IRanGd=           0 AccXCQ= 0.00D+00.
 Generated NRdTot=       0 NPtTot=           0 NUsed=           0 NTot=          32
 NSgBfM=   360   360   360   360   360 MxSgAt=    16 MxSgA2=    16.
 Leave Link  302 at Mon Jun 15 17:32:37 2020, MaxMem= 16106127360 cpu:        15.7
 (Enter /sw/contrib/gaussian/g09/E01/g09/l303.exe)
 DipDrv:  MaxL=1.
 Leave Link  303 at Mon Jun 15 17:32:37 2020, MaxMem= 16106127360 cpu:         0.9
 (Enter /sw/contrib/gaussian/g09/E01/g09/l401.exe)
 ExpMin= 1.03D-01 ExpMax= 1.53D+04 ExpMxC= 5.22D+02 IAcc=3 IRadAn=         5 AccDes= 0.00D+00
 Harris functional with IExCor=  419 and IRadAn=       5 diagonalized for initial guess.
 HarFok:  IExCor=  419 AccDes= 0.00D+00 IRadAn=         5 IDoV= 1 UseB2=F ITyADJ=14
 ICtDFT=  3500011 ScaDFX=  1.000000  1.000000  1.000000  1.000000
 FoFCou: FMM=F IPFlag=           0 FMFlag=      100000 FMFlg1=           0
         NFxFlg=           0 DoJE=T BraDBF=F KetDBF=T FulRan=T
         wScrn=  0.000000 ICntrl=     500 IOpCl=  0 I1Cent=   200000004 NGrid=           0
         NMat0=    1 NMatS0=      1 NMatT0=    0 NMatD0=    1 NMtDS0=    0 NMtDT0=    0
 Petite list used in FoFCou.
 Harris En= -308.963586434408    
 JPrj=0 DoOrth=F DoCkMO=F.
 Leave Link  401 at Mon Jun 15 17:32:38 2020, MaxMem= 16106127360 cpu:        27.0
 (Enter /sw/contrib/gaussian/g09/E01/g09/l502.exe)
 Closed shell SCF:
 Using DIIS extrapolation, IDIIS=  1040.
 Integral symmetry usage will be decided dynamically.
 Keep R1 ints in memory in canonical form, NReq=1342893302.
 IVT=      420062 IEndB=      420062 NGot= 16106127360 MDV= 14786756819
 LenX= 14786756819 LenY= 14786626778
 Requested convergence on RMS density matrix=1.00D-08 within 128 cycles.
 Requested convergence on MAX density matrix=1.00D-06.
 Requested convergence on             energy=1.00D-06.
 No special actions if energy rises.
 FoFCou: FMM=F IPFlag=           0 FMFlag=           0 FMFlg1=           0
         NFxFlg=           0 DoJE=F BraDBF=F KetDBF=F FulRan=T
         wScrn=  0.000000 ICntrl=     600 IOpCl=  0 I1Cent=           0 NGrid=           0
         NMat0=    1 NMatS0=  51360 NMatT0=    0 NMatD0=    1 NMtDS0=    0 NMtDT0=    0
 Symmetry not used in FoFCou.
 Integral accuracy reduced to 1.0D-05 until final iterations.

 Cycle   1  Pass 0  IDiag  1:
 E= -307.939567376785    
 DIIS: error= 3.62D-02 at cycle   1 NSaved=   1.
 NSaved= 1 IEnMin= 1 EnMin= -307.939567376785     IErMin= 1 ErrMin= 3.62D-02
 ErrMax= 3.62D-02  0.00D+00 EMaxC= 1.00D-01 BMatC= 3.84D-01 BMatP= 3.84D-01
 IDIUse=3 WtCom= 6.38D-01 WtEn= 3.62D-01
 Coeff-Com:  0.100D+01
 Coeff-En:   0.100D+01
 Coeff:      0.100D+01
 Gap=     0.458 Goal=   None    Shift=    0.000
 GapD=    0.458 DampG=2.000 DampE=0.500 DampFc=1.0000 IDamp=-1.
 RMSDP=1.84D-03 MaxDP=8.34D-02              OVMax= 1.48D-01

 Cycle   2  Pass 0  IDiag  1:
 E= -308.056399420277     Delta-E=       -0.116832043492 Rises=F Damp=F
 DIIS: error= 3.03D-02 at cycle   2 NSaved=   2.
 NSaved= 2 IEnMin= 2 EnMin= -308.056399420277     IErMin= 2 ErrMin= 3.03D-02
 ErrMax= 3.03D-02  0.00D+00 EMaxC= 1.00D-01 BMatC= 2.03D-01 BMatP= 3.84D-01
 IDIUse=3 WtCom= 6.97D-01 WtEn= 3.03D-01
 Coeff-Com:  0.413D+00 0.587D+00
 Coeff-En:   0.344D+00 0.656D+00
 Coeff:      0.392D+00 0.608D+00
 Gap=     0.426 Goal=   None    Shift=    0.000
 RMSDP=1.04D-03 MaxDP=5.45D-02 DE=-1.17D-01 OVMax= 7.90D-02

 Cycle   3  Pass 0  IDiag  1:
 E= -308.220265322322     Delta-E=       -0.163865902045 Rises=F Damp=F
 DIIS: error= 4.37D-03 at cycle   3 NSaved=   3.
 NSaved= 3 IEnMin= 3 EnMin= -308.220265322322     IErMin= 3 ErrMin= 4.37D-03
 ErrMax= 4.37D-03  0.00D+00 EMaxC= 1.00D-01 BMatC= 1.41D-02 BMatP= 2.03D-01
 IDIUse=3 WtCom= 9.56D-01 WtEn= 4.37D-02
 Coeff-Com:  0.972D-01 0.244D+00 0.658D+00
 Coeff-En:   0.000D+00 0.000D+00 0.100D+01
 Coeff:      0.930D-01 0.234D+00 0.673D+00
 Gap=     0.417 Goal=   None    Shift=    0.000
 RMSDP=2.39D-04 MaxDP=1.32D-02 DE=-1.64D-01 OVMax= 2.32D-02

 Cycle   4  Pass 0  IDiag  1:
 E= -308.227662590930     Delta-E=       -0.007397268608 Rises=F Damp=F
 DIIS: error= 2.33D-03 at cycle   4 NSaved=   4.
 NSaved= 4 IEnMin= 4 EnMin= -308.227662590930     IErMin= 4 ErrMin= 2.33D-03
 ErrMax= 2.33D-03  0.00D+00 EMaxC= 1.00D-01 BMatC= 3.17D-03 BMatP= 1.41D-02
 IDIUse=3 WtCom= 9.77D-01 WtEn= 2.33D-02
 Coeff-Com: -0.658D-02 0.437D-01 0.370D+00 0.593D+00
 Coeff-En:   0.000D+00 0.000D+00 0.154D+00 0.846D+00
 Coeff:     -0.642D-02 0.427D-01 0.365D+00 0.599D+00
 Gap=     0.405 Goal=   None    Shift=    0.000
 RMSDP=9.37D-05 MaxDP=5.37D-03 DE=-7.40D-03 OVMax= 8.45D-03

 Cycle   5  Pass 0  IDiag  1:
 E= -308.229748072147     Delta-E=       -0.002085481217 Rises=F Damp=F
 DIIS: error= 3.93D-04 at cycle   5 NSaved=   5.
 NSaved= 5 IEnMin= 5 EnMin= -308.229748072147     IErMin= 5 ErrMin= 3.93D-04
 ErrMax= 3.93D-04  0.00D+00 EMaxC= 1.00D-01 BMatC= 3.11D-05 BMatP= 3.17D-03
 IDIUse=3 WtCom= 9.96D-01 WtEn= 3.93D-03
 Coeff-Com: -0.478D-02 0.642D-02 0.954D-01 0.192D+00 0.711D+00
 Coeff-En:   0.000D+00 0.000D+00 0.000D+00 0.000D+00 0.100D+01
 Coeff:     -0.476D-02 0.639D-02 0.950D-01 0.191D+00 0.713D+00
 Gap=     0.404 Goal=   None    Shift=    0.000
 RMSDP=1.50D-05 MaxDP=5.07D-04 DE=-2.09D-03 OVMax= 1.67D-03

 Cycle   6  Pass 0  IDiag  1:
 E= -308.229772769627     Delta-E=       -0.000024697480 Rises=F Damp=F
 DIIS: error= 1.02D-04 at cycle   6 NSaved=   6.
 NSaved= 6 IEnMin= 6 EnMin= -308.229772769627     IErMin= 6 ErrMin= 1.02D-04
 ErrMax= 1.02D-04  0.00D+00 EMaxC= 1.00D-01 BMatC= 3.27D-06 BMatP= 3.11D-05
 IDIUse=3 WtCom= 9.99D-01 WtEn= 1.02D-03
 Coeff-Com: -0.144D-02-0.349D-03 0.155D-01 0.367D-01 0.279D+00 0.671D+00
 Coeff-En:   0.000D+00 0.000D+00 0.000D+00 0.000D+00 0.000D+00 0.100D+01
 Coeff:     -0.143D-02-0.349D-03 0.155D-01 0.366D-01 0.279D+00 0.671D+00
 Gap=     0.404 Goal=   None    Shift=    0.000
 RMSDP=3.79D-06 MaxDP=2.03D-04 DE=-2.47D-05 OVMax= 3.74D-04

 Initial convergence to 1.0D-05 achieved.  Increase integral accuracy.
 Cycle   7  Pass 1  IDiag  1:
 E= -308.229785029386     Delta-E=       -0.000012259759 Rises=F Damp=F
 DIIS: error= 2.61D-05 at cycle   1 NSaved=   1.
 NSaved= 1 IEnMin= 1 EnMin= -308.229785029386     IErMin= 1 ErrMin= 2.61D-05
 ErrMax= 2.61D-05  0.00D+00 EMaxC= 1.00D-01 BMatC= 1.55D-07 BMatP= 1.55D-07
 IDIUse=1 WtCom= 1.00D+00 WtEn= 0.00D+00
 Coeff-Com:  0.100D+01
 Coeff:      0.100D+01
 Gap=     0.404 Goal=   None    Shift=    0.000
 RMSDP=3.79D-06 MaxDP=2.03D-04 DE=-1.23D-05 OVMax= 1.90D-04

 Cycle   8  Pass 1  IDiag  1:
 E= -308.229785137995     Delta-E=       -0.000000108608 Rises=F Damp=F
 DIIS: error= 1.59D-05 at cycle   2 NSaved=   2.
 NSaved= 2 IEnMin= 2 EnMin= -308.229785137995     IErMin= 2 ErrMin= 1.59D-05
 ErrMax= 1.59D-05  0.00D+00 EMaxC= 1.00D-01 BMatC= 1.12D-07 BMatP= 1.55D-07
 IDIUse=1 WtCom= 1.00D+00 WtEn= 0.00D+00
 Coeff-Com:  0.453D+00 0.547D+00
 Coeff:      0.453D+00 0.547D+00
 Gap=     0.404 Goal=   None    Shift=    0.000
 RMSDP=6.35D-07 MaxDP=2.91D-05 DE=-1.09D-07 OVMax= 7.56D-05

 Cycle   9  Pass 1  IDiag  1:
 E= -308.229785225714     Delta-E=       -0.000000087719 Rises=F Damp=F
 DIIS: error= 3.76D-06 at cycle   3 NSaved=   3.
 NSaved= 3 IEnMin= 3 EnMin= -308.229785225714     IErMin= 3 ErrMin= 3.76D-06
 ErrMax= 3.76D-06  0.00D+00 EMaxC= 1.00D-01 BMatC= 5.88D-09 BMatP= 1.12D-07
 IDIUse=1 WtCom= 1.00D+00 WtEn= 0.00D+00
 Coeff-Com: -0.606D-01 0.838D-01 0.977D+00
 Coeff:     -0.606D-01 0.838D-01 0.977D+00
 Gap=     0.404 Goal=   None    Shift=    0.000
 RMSDP=3.06D-07 MaxDP=1.36D-05 DE=-8.77D-08 OVMax= 3.23D-05

 Cycle  10  Pass 1  IDiag  1:
 E= -308.229785232845     Delta-E=       -0.000000007132 Rises=F Damp=F
 DIIS: error= 2.79D-06 at cycle   4 NSaved=   4.
 NSaved= 4 IEnMin= 4 EnMin= -308.229785232845     IErMin= 4 ErrMin= 2.79D-06
 ErrMax= 2.79D-06  0.00D+00 EMaxC= 1.00D-01 BMatC= 2.04D-09 BMatP= 5.88D-09
 IDIUse=1 WtCom= 1.00D+00 WtEn= 0.00D+00
 Coeff-Com: -0.992D-01-0.405D-01 0.493D+00 0.647D+00
 Coeff:     -0.992D-01-0.405D-01 0.493D+00 0.647D+00
 Gap=     0.404 Goal=   None    Shift=    0.000
 RMSDP=1.23D-07 MaxDP=6.23D-06 DE=-7.13D-09 OVMax= 2.01D-05

 Cycle  11  Pass 1  IDiag  1:
 E= -308.229785234840     Delta-E=       -0.000000001995 Rises=F Damp=F
 DIIS: error= 8.51D-07 at cycle   5 NSaved=   5.
 NSaved= 5 IEnMin= 5 EnMin= -308.229785234840     IErMin= 5 ErrMin= 8.51D-07
 ErrMax= 8.51D-07  0.00D+00 EMaxC= 1.00D-01 BMatC= 2.33D-10 BMatP= 2.04D-09
 IDIUse=1 WtCom= 1.00D+00 WtEn= 0.00D+00
 Coeff-Com: -0.367D-01-0.306D-01 0.665D-01 0.283D+00 0.718D+00
 Coeff:     -0.367D-01-0.306D-01 0.665D-01 0.283D+00 0.718D+00
 Gap=     0.404 Goal=   None    Shift=    0.000
 RMSDP=4.07D-08 MaxDP=1.71D-06 DE=-2.00D-09 OVMax= 5.18D-06

 Cycle  12  Pass 1  IDiag  1:
 E= -308.229785235068     Delta-E=       -0.000000000227 Rises=F Damp=F
 DIIS: error= 1.09D-07 at cycle   6 NSaved=   6.
 NSaved= 6 IEnMin= 6 EnMin= -308.229785235068     IErMin= 6 ErrMin= 1.09D-07
 ErrMax= 1.09D-07  0.00D+00 EMaxC= 1.00D-01 BMatC= 4.22D-12 BMatP= 2.33D-10
 IDIUse=1 WtCom= 1.00D+00 WtEn= 0.00D+00
 Coeff-Com:  0.891D-02 0.347D-02-0.457D-01-0.524D-01-0.861D-02 0.109D+01
 Coeff:      0.891D-02 0.347D-02-0.457D-01-0.524D-01-0.861D-02 0.109D+01
 Gap=     0.404 Goal=   None    Shift=    0.000
 RMSDP=1.12D-08 MaxDP=4.92D-07 DE=-2.27D-10 OVMax= 2.07D-06

 Cycle  13  Pass 1  IDiag  1:
 E= -308.229785235061     Delta-E=        0.000000000007 Rises=F Damp=F
 DIIS: error= 5.13D-08 at cycle   7 NSaved=   7.
 NSaved= 7 IEnMin= 6 EnMin= -308.229785235068     IErMin= 7 ErrMin= 5.13D-08
 ErrMax= 5.13D-08  0.00D+00 EMaxC= 1.00D-01 BMatC= 5.47D-13 BMatP= 4.22D-12
 IDIUse=1 WtCom= 1.00D+00 WtEn= 0.00D+00
 Coeff-Com:  0.446D-02 0.241D-02-0.155D-01-0.303D-01-0.393D-01 0.328D+00
 Coeff-Com:  0.750D+00
 Coeff:      0.446D-02 0.241D-02-0.155D-01-0.303D-01-0.393D-01 0.328D+00
 Coeff:      0.750D+00
 Gap=     0.404 Goal=   None    Shift=    0.000
 RMSDP=2.07D-09 MaxDP=8.97D-08 DE= 6.82D-12 OVMax= 2.60D-07

 SCF Done:  E(RB2PLYPD3) =  -308.229785235     A.U. after   13 cycles
            NFock= 13  Conv=0.21D-08     -V/T= 2.0024
 KE= 3.074934782966D+02 PE=-1.266754530675D+03 EE= 3.786927957958D+02
 Leave Link  502 at Mon Jun 15 17:33:21 2020, MaxMem= 16106127360 cpu:       388.2
 (Enter /sw/contrib/gaussian/g09/E01/g09/l801.exe)
 DoSCS=T DFT=T ScalE2(SS,OS)=  0.270000  0.270000
 ExpMin= 1.03D-01 ExpMax= 1.53D+04 ExpMxC= 5.22D+02 IAcc=3 IRadAn=         5 AccDes= 0.00D+00
 HarFok:  IExCor=  205 AccDes= 0.00D+00 IRadAn=         5 IDoV=-2 UseB2=F ITyADJ=14
 ICtDFT= 12500011 ScaDFX=  1.000000  1.000000  1.000000  1.000000
 Largest valence mixing into a core orbital is  1.20D-04
 Largest core mixing into a valence orbital is  2.01D-05
 Range of M.O.s used for correlation:     7   320
 NBasis=   320 NAE=    25 NBE=    25 NFC=     6 NFV=     0
 NROrb=    314 NOA=    19 NOB=    19 NVA=   295 NVB=   295

 **** Warning!!: The largest alpha MO coefficient is  0.10796516D+02

 Leave Link  801 at Mon Jun 15 17:33:21 2020, MaxMem= 16106127360 cpu:         2.1
 (Enter /sw/contrib/gaussian/g09/E01/g09/l906.exe)
 DoSCS=T DFT=T ScalE2(SS,OS)=  0.270000  0.270000
 Frozen-core derivative calculation, NFC=   6 NFV=   0.
 FulOut=F Deriv=T AODrv=T NAtomX=    16
   MMem=         693  MDisk=          19 MDiskD=          19
  W3Min=     2880000 MinDsk=     4400780 NBas6D=         360
 NBas2D=       65694    NTT=       64980    LW2=     3500000
    MDV= 16104914923 MDiskM=      223651 NBas2p=       64429
 Fully direct method using O(ONN) memory.
 IMap=   1   2   3   4   5   6   7   8   9  10  11  12  13  14  15  16  17  18  19  20
 IMap=  21  22  23  24  25
 JobTyp=1 Pass  1:  I=   7 to  25 NPSUse= 28 ParTrn=T ParDer=T DoDerP=T.
 Spin components of T(2) and E(2):
     alpha-alpha T2 =       0.6293097459D-01 E2=     -0.4607132304D-01
     alpha-beta  T2 =       0.3794325905D+00 E2=     -0.2942301359D+00
     beta-beta   T2 =       0.6293097459D-01 E2=     -0.4607132304D-01
 The integrals were generated   1 times.
 E2(B2PLYPD3) =    -0.3863727819D+00 E(B2PLYPD3) =    -0.30861615801700D+03
 Leave Link  906 at Mon Jun 15 17:35:12 2020, MaxMem= 16106127360 cpu:      3091.3
 (Enter /sw/contrib/gaussian/g09/E01/g09/l1002.exe)
 Minotr:  Closed shell wavefunction.
          Computing MP2/KS-MP2 derivatives.
          Using Z-Vector for PSCF gradient.
          Skipping F1 and S1 gradient terms here.
          IDoAtm=1111111111111111
          Frozen-core window.
          Direct CPHF calculation.
          Differentiating once with respect to electric field.
                with respect to dipole field.
          Differentiating once with respect to nuclear coordinates.
          Requested convergence is 1.0D-10 RMS, and 1.0D-09 maximum.
          NewPWx=F KeepS1=T KeepF1=T KeepIn=T MapXYZ=F SortEE=F KeepMc=T.
          MDV=   16106126882 using IRadAn=       5.
 Using stored XC quadrature information.
 Keep R1 ints in memory in canonical form, NReq=1342475877.
 FoFCou: FMM=F IPFlag=           0 FMFlag=           0 FMFlg1=           0
         NFxFlg=           0 DoJE=F BraDBF=F KetDBF=F FulRan=T
         wScrn=  0.000000 ICntrl=     600 IOpCl=  0 I1Cent=           0 NGrid=           0
         NMat0=    1 NMatS0=  51360 NMatT0=    0 NMatD0=    1 NMtDS0=    0 NMtDT0=    0
 Symmetry not used in FoFCou.
          Solving linear equations separately, MaxMat=       0.
          There are     1 degrees of freedom in the 1st order CPHF.  IDoFFX=0 NUNeed=     1.
 LinEq1:  Iter=  0 NonCon=     1 RMS=1.14D-03 Max=2.31D-02 NDo=     1
 AX will form     1 AO Fock derivatives at one time.
 LinEq1:  Iter=  1 NonCon=     1 RMS=3.37D-04 Max=5.97D-03 NDo=     1
 LinEq1:  Iter=  2 NonCon=     1 RMS=1.01D-04 Max=2.05D-03 NDo=     1
 LinEq1:  Iter=  3 NonCon=     1 RMS=4.00D-05 Max=6.48D-04 NDo=     1
 LinEq1:  Iter=  4 NonCon=     1 RMS=1.76D-05 Max=4.99D-04 NDo=     1
 LinEq1:  Iter=  5 NonCon=     1 RMS=1.18D-05 Max=2.37D-04 NDo=     1
 LinEq1:  Iter=  6 NonCon=     1 RMS=3.34D-06 Max=6.49D-05 NDo=     1
 LinEq1:  Iter=  7 NonCon=     1 RMS=8.08D-07 Max=2.06D-05 NDo=     1
 LinEq1:  Iter=  8 NonCon=     1 RMS=3.58D-07 Max=6.11D-06 NDo=     1
 LinEq1:  Iter=  9 NonCon=     1 RMS=1.02D-07 Max=3.01D-06 NDo=     1
 LinEq1:  Iter= 10 NonCon=     1 RMS=3.31D-08 Max=5.70D-07 NDo=     1
 LinEq1:  Iter= 11 NonCon=     1 RMS=7.33D-09 Max=1.87D-07 NDo=     1
 LinEq1:  Iter= 12 NonCon=     1 RMS=1.90D-09 Max=2.99D-08 NDo=     1
 LinEq1:  Iter= 13 NonCon=     1 RMS=7.08D-10 Max=8.23D-09 NDo=     1
 LinEq1:  Iter= 14 NonCon=     1 RMS=2.41D-10 Max=3.47D-09 NDo=     1
 LinEq1:  Iter= 15 NonCon=     1 RMS=5.50D-11 Max=1.87D-09 NDo=     1
 LinEq1:  Iter= 16 NonCon=     0 RMS=1.27D-11 Max=5.09D-10 NDo=     1
 Linear equations converged to 1.000D-10 1.000D-09 after    16 iterations.
 End of Minotr F.D. properties file   721 does not exist.
 End of Minotr F.D. properties file   722 does not exist.
 End of Minotr F.D. properties file   788 does not exist.
 Leave Link 1002 at Mon Jun 15 17:36:15 2020, MaxMem= 16106127360 cpu:       744.0
 (Enter /sw/contrib/gaussian/g09/E01/g09/l601.exe)
 Copying SCF densities to generalized density rwf, IOpCl= 0 IROHF=0.

 **********************************************************************

            Population analysis using the SCF density.

 **********************************************************************

 Orbital symmetries:
       Occupied  (A) (A) (A) (A) (A) (A) (A) (A) (A) (A) (A) (A)
                 (A) (A) (A) (A) (A) (A) (A) (A) (A) (A) (A) (A)
                 (A)
       Virtual   (A) (A) (A) (A) (A) (A) (A) (A) (A) (A) (A) (A)
                 (A) (A) (A) (A) (A) (A) (A) (A) (A) (A) (A) (A)
                 (A) (A) (A) (A) (A) (A) (A) (A) (A) (A) (A) (A)
                 (A) (A) (A) (A) (A) (A) (A) (A) (A) (A) (A) (A)
                 (A) (A) (A) (A) (A) (A) (A) (A) (A) (A) (A) (A)
                 (A) (A) (A) (A) (A) (A) (A) (A) (A) (A) (A) (A)
                 (A) (A) (A) (A) (A) (A) (A) (A) (A) (A) (A) (A)
                 (A) (A) (A) (A) (A) (A) (A) (A) (A) (A) (A) (A)
                 (A) (A) (A) (A) (A) (A) (A) (A) (A) (A) (A) (A)
                 (A) (A) (A) (A) (A) (A) (A) (A) (A) (A) (A) (A)
                 (A) (A) (A) (A) (A) (A) (A) (A) (A) (A) (A) (A)
                 (A) (A) (A) (A) (A) (A) (A) (A) (A) (A) (A) (A)
                 (A) (A) (A) (A) (A) (A) (A) (A) (A) (A) (A) (A)
                 (A) (A) (A) (A) (A) (A) (A) (A) (A) (A) (A) (A)
                 (A) (A) (A) (A) (A) (A) (A) (A) (A) (A) (A) (A)
                 (A) (A) (A) (A) (A) (A) (A) (A) (A) (A) (A) (A)
                 (A) (A) (A) (A) (A) (A) (A) (A) (A) (A) (A) (A)
                 (A) (A) (A) (A) (A) (A) (A) (A) (A) (A) (A) (A)
                 (A) (A) (A) (A) (A) (A) (A) (A) (A) (A) (A) (A)
                 (A) (A) (A) (A) (A) (A) (A) (A) (A) (A) (A) (A)
                 (A) (A) (A) (A) (A) (A) (A) (A) (A) (A) (A) (A)
                 (A) (A) (A) (A) (A) (A) (A) (A) (A) (A) (A) (A)
                 (A) (A) (A) (A) (A) (A) (A) (A) (A) (A) (A) (A)
                 (A) (A) (A) (A) (A) (A) (A) (A) (A) (A) (A) (A)
                 (A) (A) (A) (A) (A) (A) (A)
 The electronic state is 1-A.
 Alpha  occ. eigenvalues --  -19.78231 -19.75526 -10.67762 -10.60536 -10.59765
 Alpha  occ. eigenvalues --  -10.59764  -1.28713  -1.08917  -0.89971  -0.80078
 Alpha  occ. eigenvalues --   -0.79643  -0.64620  -0.62417  -0.55669  -0.53836
 Alpha  occ. eigenvalues --   -0.50026  -0.48964  -0.47388  -0.45218  -0.44011
 Alpha  occ. eigenvalues --   -0.43124  -0.42561  -0.40091  -0.38607  -0.32545
 Alpha virt. eigenvalues --    0.07861   0.08543   0.12313   0.13026   0.13509
 Alpha virt. eigenvalues --    0.14804   0.14809   0.15688   0.19345   0.19527
 Alpha virt. eigenvalues --    0.20054   0.21472   0.24171   0.25198   0.26343
 Alpha virt. eigenvalues --    0.30890   0.31755   0.33603   0.38018   0.38832
 Alpha virt. eigenvalues --    0.42462   0.42899   0.46143   0.47146   0.48509
 Alpha virt. eigenvalues --    0.50524   0.52274   0.52839   0.53441   0.53775
 Alpha virt. eigenvalues --    0.54754   0.54983   0.56429   0.56464   0.57359
 Alpha virt. eigenvalues --    0.57789   0.60543   0.64375   0.66537   0.68529
 Alpha virt. eigenvalues --    0.71339   0.72914   0.74199   0.77304   0.79186
 Alpha virt. eigenvalues --    0.82902   0.84132   0.84457   0.85572   0.88425
 Alpha virt. eigenvalues --    0.92676   0.93029   0.96493   0.96815   0.97602
 Alpha virt. eigenvalues --    1.01675   1.02026   1.03330   1.04169   1.04997
 Alpha virt. eigenvalues --    1.06648   1.09121   1.11389   1.15453   1.16055
 Alpha virt. eigenvalues --    1.16679   1.21125   1.21948   1.23557   1.27121
 Alpha virt. eigenvalues --    1.28769   1.29045   1.31540   1.32045   1.33183
 Alpha virt. eigenvalues --    1.35007   1.36135   1.37359   1.37802   1.41065
 Alpha virt. eigenvalues --    1.41243   1.42213   1.43191   1.46694   1.47347
 Alpha virt. eigenvalues --    1.52488   1.54373   1.55758   1.57287   1.60009
 Alpha virt. eigenvalues --    1.61343   1.63292   1.64151   1.66401   1.66961
 Alpha virt. eigenvalues --    1.70151   1.72888   1.75003   1.82112   1.84840
 Alpha virt. eigenvalues --    1.90615   1.95894   2.01120   2.06345   2.15803
 Alpha virt. eigenvalues --    2.16546   2.16902   2.29455   2.34868   2.35767
 Alpha virt. eigenvalues --    2.41210   2.45961   2.48006   2.51063   2.57330
 Alpha virt. eigenvalues --    2.58999   2.60377   2.65224   2.66830   2.66932
 Alpha virt. eigenvalues --    2.69481   2.72649   2.73385   2.73412   2.76776
 Alpha virt. eigenvalues --    2.81769   2.85594   2.91213   2.92157   2.92889
 Alpha virt. eigenvalues --    2.93105   2.94658   2.95325   2.96680   2.97755
 Alpha virt. eigenvalues --    2.99134   3.05118   3.05347   3.10167   3.10313
 Alpha virt. eigenvalues --    3.14651   3.15071   3.15131   3.17605   3.18897
 Alpha virt. eigenvalues --    3.19501   3.22557   3.25531   3.27713   3.28126
 Alpha virt. eigenvalues --    3.28409   3.29424   3.34375   3.35775   3.37377
 Alpha virt. eigenvalues --    3.37925   3.38310   3.40642   3.43267   3.45386
 Alpha virt. eigenvalues --    3.47547   3.48238   3.52456   3.53204   3.55767
 Alpha virt. eigenvalues --    3.56985   3.58540   3.58809   3.59086   3.61475
 Alpha virt. eigenvalues --    3.62094   3.63472   3.64205   3.65287   3.71337
 Alpha virt. eigenvalues --    3.71555   3.74901   3.80788   3.81688   3.82534
 Alpha virt. eigenvalues --    3.83793   3.84273   3.86603   3.88126   3.88624
 Alpha virt. eigenvalues --    3.93739   3.97441   3.98082   3.98898   4.01038
 Alpha virt. eigenvalues --    4.03855   4.07784   4.09206   4.09991   4.12166
 Alpha virt. eigenvalues --    4.13010   4.13720   4.17016   4.18314   4.19062
 Alpha virt. eigenvalues --    4.24200   4.24467   4.25509   4.28077   4.30783
 Alpha virt. eigenvalues --    4.32487   4.33237   4.33761   4.35255   4.38041
 Alpha virt. eigenvalues --    4.40800   4.41759   4.43758   4.44212   4.46443
 Alpha virt. eigenvalues --    4.46458   4.47780   4.51889   4.53976   4.58418
 Alpha virt. eigenvalues --    4.59967   4.60382   4.65009   4.68812   4.75840
 Alpha virt. eigenvalues --    4.77661   4.82646   4.92195   4.93818   4.94843
 Alpha virt. eigenvalues --    4.96501   4.98335   5.01432   5.02426   5.07180
 Alpha virt. eigenvalues --    5.08547   5.09877   5.10554   5.23280   5.26102
 Alpha virt. eigenvalues --    5.28008   5.28281   5.29674   5.31475   5.31910
 Alpha virt. eigenvalues --    5.33874   5.35428   5.38792   5.40464   5.44367
 Alpha virt. eigenvalues --    5.45819   5.46604   5.47348   5.49786   5.52224
 Alpha virt. eigenvalues --    5.54862   5.56155   5.56774   5.62037   5.62238
 Alpha virt. eigenvalues --    5.68476   5.69254   5.72525   5.88822   5.90696
 Alpha virt. eigenvalues --    5.97087   6.01107   6.03621   6.04894   6.05571
 Alpha virt. eigenvalues --    6.11089   6.12472   6.16870   6.23669   6.29003
 Alpha virt. eigenvalues --    6.54875   6.56653   6.58431   6.84397   6.95122
 Alpha virt. eigenvalues --    7.04323   7.16526   7.27107   7.40510   7.67851
 Alpha virt. eigenvalues --    7.75274   7.82887   7.89225   8.05036  10.12678
 Alpha virt. eigenvalues --   11.21523  13.97925  14.00055  14.06994  14.25927
          Condensed to atoms (all electrons):
               1          2          3          4          5          6
     1  C    4.685669   0.351903  -0.026908  -0.032936   0.306240  -0.048817
     2  C    0.351903   4.923085   0.410043   0.400290  -0.056513  -0.003582
     3  H   -0.026908   0.410043   0.551104  -0.025634  -0.005643   0.010843
     4  H   -0.032936   0.400290  -0.025634   0.579297   0.005163  -0.000822
     5  O    0.306240  -0.056513  -0.005643   0.005163   8.014886   0.068844
     6  O   -0.048817  -0.003582   0.010843  -0.000822   0.068844   7.752433
     7  H    0.002169   0.000875  -0.000850   0.000100   0.002669   0.360242
     8  C    0.356378  -0.051938   0.006752  -0.005452  -0.041705   0.003965
     9  H   -0.029459   0.008528  -0.000344  -0.000271   0.002006  -0.000266
    10  H   -0.029456  -0.009121  -0.000189   0.003729   0.002016  -0.000267
    11  H   -0.040065  -0.000630   0.000020   0.000152   0.003161  -0.000283
    12  C    0.351881  -0.071344  -0.005577   0.008259  -0.056427  -0.003616
    13  H   -0.032922   0.008257   0.000020  -0.000524   0.005156  -0.000826
    14  H   -0.032597   0.000053   0.000387  -0.000296   0.004014   0.000570
    15  H   -0.026919  -0.005578   0.001601   0.000020  -0.005662   0.010876
    16  H   -0.032588   0.400176  -0.030109  -0.027780   0.004012   0.000572
               7          8          9         10         11         12
     1  C    0.002169   0.356378  -0.029459  -0.029456  -0.040065   0.351881
     2  C    0.000875  -0.051938   0.008528  -0.009121  -0.000630  -0.071344
     3  H   -0.000850   0.006752  -0.000344  -0.000189   0.000020  -0.005577
     4  H    0.000100  -0.005452  -0.000271   0.003729   0.000152   0.008259
     5  O    0.002669  -0.041705   0.002006   0.002016   0.003161  -0.056427
     6  O    0.360242   0.003965  -0.000266  -0.000267  -0.000283  -0.003616
     7  H    0.505659  -0.000444   0.000053   0.000053   0.000033   0.000876
     8  C   -0.000444   4.873028   0.408551   0.408530   0.403285  -0.051922
     9  H    0.000053   0.408551   0.568964  -0.027828  -0.028796  -0.009131
    10  H    0.000053   0.408530  -0.027828   0.568927  -0.028784   0.008531
    11  H    0.000033   0.403285  -0.028796  -0.028784   0.600457  -0.000618
    12  C    0.000876  -0.051922  -0.009131   0.008531  -0.000618   4.922994
    13  H    0.000100  -0.005465   0.003733  -0.000271   0.000151   0.400315
    14  H   -0.000055  -0.005761   0.000610  -0.000255   0.000350   0.400172
    15  H   -0.000850   0.006751  -0.000188  -0.000343   0.000019   0.410056
    16  H   -0.000055  -0.005769  -0.000253   0.000610   0.000351   0.000049
              13         14         15         16
     1  C   -0.032922  -0.032597  -0.026919  -0.032588
     2  C    0.008257   0.000053  -0.005578   0.400176
     3  H    0.000020   0.000387   0.001601  -0.030109
     4  H   -0.000524  -0.000296   0.000020  -0.027780
     5  O    0.005156   0.004014  -0.005662   0.004012
     6  O   -0.000826   0.000570   0.010876   0.000572
     7  H    0.000100  -0.000055  -0.000850  -0.000055
     8  C   -0.005465  -0.005761   0.006751  -0.005769
     9  H    0.003733   0.000610  -0.000188  -0.000253
    10  H   -0.000271  -0.000255  -0.000343   0.000610
    11  H    0.000151   0.000350   0.000019   0.000351
    12  C    0.400315   0.400172   0.410056   0.000049
    13  H    0.579350  -0.027813  -0.025634  -0.000296
    14  H   -0.027813   0.601753  -0.030077  -0.001179
    15  H   -0.025634  -0.030077   0.551029   0.000388
    16  H   -0.000296  -0.001179   0.000388   0.601755
 Mulliken charges:
               1
     1  C    0.278425
     2  C   -0.304503
     3  H    0.114482
     4  H    0.096708
     5  O   -0.252215
     6  O   -0.149866
     7  H    0.129427
     8  C   -0.298786
     9  H    0.104091
    10  H    0.104116
    11  H    0.091197
    12  C   -0.304497
    13  H    0.096671
    14  H    0.090123
    15  H    0.114512
    16  H    0.090115
 Sum of Mulliken charges =  -0.00000
 Mulliken charges with hydrogens summed into heavy atoms:
               1
     1  C    0.278425
     2  C   -0.003197
     5  O   -0.252215
     6  O   -0.020439
     8  C    0.000617
    12  C   -0.003190
 Electronic spatial extent (au):  <R**2>=            601.6298
 Charge=             -0.0000 electrons
 Dipole moment (field-independent basis, Debye):
    X=              0.5294    Y=             -0.0001    Z=              0.0314  Tot=              0.5303
 Quadrupole moment (field-independent basis, Debye-Ang):
   XX=            -34.7128   YY=            -38.6842   ZZ=            -38.6005
   XY=              0.0028   XZ=              1.8796   YZ=              0.0002
 Traceless Quadrupole moment (field-independent basis, Debye-Ang):
   XX=              2.6197   YY=             -1.3517   ZZ=             -1.2680
   XY=              0.0028   XZ=              1.8796   YZ=              0.0002
 Octapole moment (field-independent basis, Debye-Ang**2):
  XXX=            -26.3192  YYY=             -0.0137  ZZZ=             -3.9033  XYY=             -3.8994
  XXY=             -0.0100  XXZ=             -7.4038  XZZ=             -5.4417  YZZ=              0.0034
  YYZ=             -3.3256  XYZ=             -0.0043
 Hexadecapole moment (field-independent basis, Debye-Ang**3):
 XXXX=           -304.1601 YYYY=           -219.8642 ZZZZ=           -209.4013 XXXY=              0.0335
 XXXZ=             29.7023 YYYX=              0.0053 YYYZ=              0.0054 ZZZX=              4.9575
 ZZZY=              0.0025 XXYY=            -98.5317 XXZZ=            -85.2251 YYZZ=            -71.1778
 XXYZ=              0.0144 YYXZ=             -0.1929 ZZXY=              0.0058
 N-N= 2.723384713478D+02 E-N=-1.266754524592D+03  KE= 3.074934782966D+02
 No NMR shielding tensors so no spin-rotation constants.
 Leave Link  601 at Mon Jun 15 17:36:16 2020, MaxMem= 16106127360 cpu:        12.4
 (Enter /sw/contrib/gaussian/g09/E01/g09/l701.exe)
 Compute integral first derivatives.
 ... and contract with generalized density number  2.
 R6Disp: Adding Grimme-D3(BJ) dispersion energy 1st derivatives to the gradient.
 Leave Link  701 at Mon Jun 15 17:36:16 2020, MaxMem= 16106127360 cpu:        12.0
 (Enter /sw/contrib/gaussian/g09/E01/g09/l702.exe)
 L702 exits ... SP integral derivatives will be done elsewhere.
 Leave Link  702 at Mon Jun 15 17:36:16 2020, MaxMem= 16106127360 cpu:         0.4
 (Enter /sw/contrib/gaussian/g09/E01/g09/l703.exe)
 Compute integral first derivatives, UseDBF=F ICtDFT=           0.
 Integral derivatives from FoFJK, PRISM(SPDF).
 Calling FoFJK, ICntrl=  10002127 FMM=F ISym2X=0 I1Cent= 0 IOpClX= 0 NMat=1 NMatS=1 NMatT=0.
 FoFJK:  IHMeth= 1 ICntrl=10002127 DoSepK=F KAlg= 0 I1Cent=   0 FoldK=F
 IRaf=         0 NMat=   1 IRICut=       1 DoRegI=T DoRafI=F ISym2E= 0.
 FoFCou: FMM=F IPFlag=           0 FMFlag=      100000 FMFlg1=         800
         NFxFlg=           0 DoJE=F BraDBF=F KetDBF=F FulRan=T
         wScrn=  0.000000 ICntrl=10002127 IOpCl=  0 I1Cent=           0 NGrid=           0
         NMat0=    1 NMatS0=      1 NMatT0=    0 NMatD0=    1 NMtDS0=    0 NMtDT0=    0
 Symmetry not used in FoFCou.
 Leave Link  703 at Mon Jun 15 17:36:24 2020, MaxMem= 16106127360 cpu:       206.6
 (Enter /sw/contrib/gaussian/g09/E01/g09/l716.exe)
 Dipole        = 1.82766947D-01-6.59253240D-05-1.52600772D-03
 ***** Axes restored to original set *****
 -------------------------------------------------------------------
 Center     Atomic                   Forces (Hartrees/Bohr)
 Number     Number              X              Y              Z
 -------------------------------------------------------------------
      1        6          -0.000571495   -0.000976079    0.000384941
      2        6           0.000070682    0.000178426   -0.000118285
      3        1          -0.000036451   -0.000044791   -0.000102931
      4        1          -0.000040174   -0.000030207    0.000046694
      5        8           0.004429445   -0.000755577    0.001990131
      6        8          -0.113420490   -0.363983306    0.170763395
      7        1           0.109695226    0.365050086   -0.172703318
      8        6           0.000027685    0.000182154   -0.000109856
      9        1          -0.000050203   -0.000009453   -0.000009405
     10        1          -0.000048738   -0.000008306   -0.000004191
     11        1           0.000092530    0.000069329   -0.000012884
     12        6          -0.000004254    0.000224924   -0.000086825
     13        1           0.000000465   -0.000044540    0.000000114
     14        1          -0.000028019    0.000060415   -0.000022403
     15        1          -0.000078396    0.000028266    0.000057702
     16        1          -0.000037814    0.000058660   -0.000072879
 -------------------------------------------------------------------
 Cartesian Forces:  Max     0.365050086 RMS     0.085349165
 -----------------------------------------------------------------------------------------------
                       Internal Coordinate Forces (Hartree/Bohr or radian)
  Cent   Atom   N1       Length/X         N2         Alpha/Y        N3         Beta/Z          J
 -----------------------------------------------------------------------------------------------
      1  C 
      2  C        1  -0.000247(     1)
      3  H        2  -0.000071(     2)      1  -0.000171(    16)
      4  H        2   0.000011(     3)      1   0.000094(    17)      3   0.000096(    30)     0
      5  O        1   0.000531(     4)      2  -0.000215(    18)      3   0.000012(    31)     0
      6  O        5  -0.004123(     5)      1   0.002155(    19)      2   0.000096(    32)     0
      7  H        6   0.418473(     6)      5   0.001549(    20)      1  -0.000002(    33)     0
      8  C        1   0.000042(     7)      5  -0.000566(    21)      6   0.000007(    34)     0
      9  H        8   0.000009(     8)      1   0.000102(    22)      5   0.000023(    35)     0
     10  H        8   0.000014(     9)      1   0.000091(    23)      5  -0.000033(    36)     0
     11  H        8  -0.000107(    10)      1  -0.000091(    24)      5  -0.000008(    37)     0
     12  C        1  -0.000248(    11)      5  -0.000239(    25)      6  -0.000084(    38)     0
     13  H       12  -0.000002(    12)      1   0.000079(    26)      5  -0.000043(    39)     0
     14  H       12  -0.000045(    13)      1  -0.000083(    27)      5   0.000070(    40)     0
     15  H       12  -0.000056(    14)      1  -0.000135(    28)      5   0.000101(    41)     0
     16  H        2  -0.000055(    15)      1  -0.000118(    29)      5  -0.000120(    42)     0
 -----------------------------------------------------------------------------------------------
 Internal  Forces:  Max     0.418473288 RMS     0.064576451
 Leave Link  716 at Mon Jun 15 17:36:24 2020, MaxMem= 16106127360 cpu:         1.0
 (Enter /sw/contrib/gaussian/g09/E01/g09/l103.exe)

 GradGradGradGradGradGradGradGradGradGradGradGradGradGradGradGradGradGrad
 Berny optimization.
 Search for a local minimum.
 Step number   1 out of a maximum of   52 on scan point     1 out of    28
 All quantities printed in internal units (Hartrees-Bohrs-Radians)
 Second derivative matrix not updated -- first step.
 ITU=  0
     Eigenvalues --- 1000.000001000.000001000.000001000.000001000.00000
     Eigenvalues --- 1000.000001000.000001000.000001000.000001000.00000
     Eigenvalues --- 1000.000001000.000001000.000001000.000001000.00000
     Eigenvalues --- 1000.000001000.000001000.000001000.000001000.00000
     Eigenvalues --- 1000.000001000.000001000.000001000.000001000.00000
     Eigenvalues --- 1000.000001000.000001000.000001000.000001000.00000
     Eigenvalues --- 1000.000001000.000001000.000001000.000001000.00000
     Eigenvalues --- 1000.000001000.000001000.000001000.000001000.00000
     Eigenvalues --- 1000.000001000.00000
 RFO step:  Lambda= 0.00000000D+00 EMin= 1.00000000D+03
 Linear search not attempted -- first point.
 Variable       Old X    -DE/DX   Delta X   Delta X   Delta X     New X
                                 (Linear)    (Quad)   (Total)
    B1        2.88045  -0.00025   0.00000   0.00000   0.00000   2.88045
    B2        2.05326  -0.00007   0.00000   0.00000   0.00000   2.05326
    B3        2.05733   0.00001   0.00000   0.00000   0.00000   2.05733
    B4        2.71830   0.00053   0.00000   0.00000   0.00000   2.71830
    B5        2.77633  -0.00412   0.00000   0.00000   0.00000   2.77633
    B6        1.44347   0.41847   0.00000   0.00000   0.00000   1.44347
    B7        2.87956   0.00004   0.00000   0.00000   0.00000   2.87956
    B8        2.05653   0.00001   0.00000   0.00000   0.00000   2.05653
    B9        2.05651   0.00001   0.00000   0.00000   0.00000   2.05651
   B10        2.05700  -0.00011   0.00000   0.00000   0.00000   2.05700
   B11        2.88043  -0.00025   0.00000   0.00000   0.00000   2.88043
   B12        2.05736  -0.00000   0.00000   0.00000   0.00000   2.05736
   B13        2.05852  -0.00004   0.00000   0.00000   0.00000   2.05852
   B14        2.05321  -0.00006   0.00000   0.00000   0.00000   2.05321
   B15        2.05854  -0.00005   0.00000   0.00000   0.00000   2.05854
    A1        1.93298  -0.00017   0.00000   0.00000   0.00000   1.93298
    A2        1.92268   0.00009   0.00000   0.00000   0.00000   1.92268
    A3        1.92513  -0.00022   0.00000   0.00000   0.00000   1.92513
    A4        1.86837   0.00215   0.00000   0.00000   0.00000   1.86837
    A5        1.70607   0.00155   0.00000   0.00000   0.00000   1.70607
    A6        1.77699  -0.00057   0.00000   0.00000   0.00000   1.77699
    A7        1.93067   0.00010   0.00000   0.00000   0.00000   1.93067
    A8        1.93068   0.00009   0.00000   0.00000   0.00000   1.93068
    A9        1.91086  -0.00009   0.00000   0.00000   0.00000   1.91086
   A10        1.92528  -0.00024   0.00000   0.00000   0.00000   1.92528
   A11        1.92280   0.00008   0.00000   0.00000   0.00000   1.92280
   A12        1.92050  -0.00008   0.00000   0.00000   0.00000   1.92050
   A13        1.93288  -0.00014   0.00000   0.00000   0.00000   1.93288
   A14        1.92074  -0.00012   0.00000   0.00000   0.00000   1.92074
    D1        2.09683   0.00010   0.00000   0.00000   0.00000   2.09683
    D2       -1.12415   0.00001   0.00000   0.00000   0.00000  -1.12415
    D3        1.08128   0.00010   0.00000   0.00000   0.00000   1.08128
    D4        3.14159  -0.00000   0.00000   0.00000   0.00000   3.14159
    D5       -3.14199   0.00001   0.00000   0.00000   0.00000  -3.14199
    D6        1.05351   0.00002   0.00000   0.00000   0.00000   1.05351
    D7       -1.05210  -0.00003   0.00000   0.00000   0.00000  -1.05210
    D8        3.14231  -0.00001   0.00000   0.00000   0.00000   3.14231
    D9       -1.08191  -0.00008   0.00000   0.00000   0.00000  -1.08191
   D10       -0.97398  -0.00004   0.00000   0.00000   0.00000  -0.97398
   D11       -3.06450   0.00007   0.00000   0.00000   0.00000  -3.06450
   D12        1.12312   0.00010   0.00000   0.00000   0.00000   1.12312
   D13        3.06359  -0.00012   0.00000   0.00000   0.00000   3.06359
         Item               Value     Threshold  Converged?
 Maximum Force            0.000000     0.000450     YES
 RMS     Force            0.000000     0.000300     YES
 Maximum Displacement     0.000000     0.001800     YES
 RMS     Displacement     0.000000     0.001200     YES
 Predicted change in Energy=-0.000000D+00
 Optimization completed.
    -- Stationary point found.
                       ----------------------------
                       !   Optimized Parameters   !
                       ! (Angstroms and Degrees)  !
 ----------------------                            ----------------------
 !      Name          Value   Derivative information (Atomic Units)     !
 ------------------------------------------------------------------------
 !       B1          1.5243   -DE/DX =   -0.0002                        !
 !       B2          1.0865   -DE/DX =   -0.0001                        !
 !       B3          1.0887   -DE/DX =    0.0                           !
 !       B4          1.4385   -DE/DX =    0.0005                        !
 !       B5          1.4692   -DE/DX =   -0.0041                        !
 !       B6          0.7639   -DE/DX =    0.4185                        !
 !       B7          1.5238   -DE/DX =    0.0                           !
 !       B8          1.0883   -DE/DX =    0.0                           !
 !       B9          1.0883   -DE/DX =    0.0                           !
 !       B10         1.0885   -DE/DX =   -0.0001                        !
 !       B11         1.5243   -DE/DX =   -0.0002                        !
 !       B12         1.0887   -DE/DX =    0.0                           !
 !       B13         1.0893   -DE/DX =    0.0                           !
 !       B14         1.0865   -DE/DX =   -0.0001                        !
 !       B15         1.0893   -DE/DX =   -0.0001                        !
 !       A1        110.7516   -DE/DX =   -0.0002                        !
 !       A2        110.1613   -DE/DX =    0.0001                        !
 !       A3        110.3019   -DE/DX =   -0.0002                        !
 !       A4        107.0499   -DE/DX =    0.0022                        !
 !       A5         97.7506   -DE/DX =    0.0015                        !
 !       A6        101.8141   -DE/DX =   -0.0006                        !
 !       A7        110.619    -DE/DX =    0.0001                        !
 !       A8        110.6198   -DE/DX =    0.0001                        !
 !       A9        109.4843   -DE/DX =   -0.0001                        !
 !       A10       110.3102   -DE/DX =   -0.0002                        !
 !       A11       110.1683   -DE/DX =    0.0001                        !
 !       A12       110.0366   -DE/DX =   -0.0001                        !
 !       A13       110.7456   -DE/DX =   -0.0001                        !
 !       A14       110.0502   -DE/DX =   -0.0001                        !
 !       D1        120.1393   -DE/DX =    0.0001                        !
 !       D2        -64.4093   -DE/DX =    0.0                           !
 !       D3         61.9526   -DE/DX =    0.0001                        !
 !       D4        180.0      -DE/DX =    0.0                           !
 !       D5       -180.0225   -DE/DX =    0.0                           !
 !       D6         60.3615   -DE/DX =    0.0                           !
 !       D7        -60.2807   -DE/DX =    0.0                           !
 !       D8        180.0409   -DE/DX =    0.0                           !
 !       D9        -61.9889   -DE/DX =   -0.0001                        !
 !       D10       -55.805    -DE/DX =    0.0                           !
 !       D11      -175.5827   -DE/DX =    0.0001                        !
 !       D12        64.3499   -DE/DX =    0.0001                        !
 !       D13       175.5308   -DE/DX =   -0.0001                        !
 ------------------------------------------------------------------------
 Lowest energy point so far.  Saving SCF results.
 GradGradGradGradGradGradGradGradGradGradGradGradGradGradGradGradGradGrad

 Leave Link  103 at Mon Jun 15 17:36:24 2020, MaxMem= 16106127360 cpu:         5.8
 (Enter /sw/contrib/gaussian/g09/E01/g09/l202.exe)
 ---------------------------------------------------------------------------------------------------
                            Z-MATRIX (ANGSTROMS AND DEGREES)
   CD    Cent   Atom    N1       Length/X        N2       Alpha/Y        N3        Beta/Z          J
 ---------------------------------------------------------------------------------------------------
      1      1  C 
      2      2  C        1   1.524270(     1)
      3      3  H        2   1.086540(     2)      1  110.752(    16)
      4      4  H        2   1.088690(     3)      1  110.161(    17)      3  120.139(    30)      0
      5      5  O        1   1.438460(     4)      2  110.302(    18)      3  -64.409(    31)      0
      6      6  O        5   1.469170(     5)      1  107.050(    19)      2   61.953(    32)      0
      7      7  H        6   0.783850(     6)      5   97.751(    20)      1  180.000(    33)      0
      8      8  C        1   1.523800(     7)      5  101.814(    21)      6 -180.023(    34)      0
      9      9  H        8   1.088270(     8)      1  110.619(    22)      5   60.362(    35)      0
     10     10  H        8   1.088260(     9)      1  110.620(    23)      5  -60.281(    36)      0
     11     11  H        8   1.088520(    10)      1  109.484(    24)      5  180.041(    37)      0
     12     12  C        1   1.524260(    11)      5  110.310(    25)      6  -61.989(    38)      0
     13     13  H       12   1.088710(    12)      1  110.168(    26)      5  -55.805(    39)      0
     14     14  H       12   1.089320(    13)      1  110.037(    27)      5 -175.583(    40)      0
     15     15  H       12   1.086510(    14)      1  110.746(    28)      5   64.350(    41)      0
     16     16  H        2   1.089330(    15)      1  110.050(    29)      5  175.531(    42)      0
 ---------------------------------------------------------------------------------------------------
                         Z-Matrix orientation:                         
 ---------------------------------------------------------------------
 Center     Atomic      Atomic             Coordinates (Angstroms)
 Number     Number       Type             X           Y           Z
 ---------------------------------------------------------------------
      1          6           0        0.000000    0.000000    0.000000
      2          6           0        0.000000    0.000000    1.524270
      3          1           0        1.016051    0.000000    1.909251
      4          1           0       -0.513142    0.883817    1.899503
      5          8           0        0.582730    1.216756   -0.499098
      6          8           0        1.974253    1.252353   -0.029143
      7          1           0        2.177874    1.936326   -0.353396
      8          6           0       -1.418885    0.085510   -0.549016
      9          1           0       -1.407336    0.123999   -1.636544
     10          1           0       -1.922932    0.973179   -0.171801
     11          1           0       -1.982019   -0.792617   -0.238130
     12          6           0        0.735634   -1.209541   -0.564998
     13          1           0        0.736718   -1.173635   -1.653115
     14          1           0        0.243255   -2.127790   -0.247191
     15          1           0        1.765049   -1.230525   -0.218056
     16          1           0       -0.512582   -0.885675    1.897740
 ---------------------------------------------------------------------
                    Distance matrix (angstroms):
                    1          2          3          4          5
     1  C    0.000000
     2  C    1.524270   0.000000
     3  H    2.162775   1.086540   0.000000
     4  H    2.156979   1.088690   1.766255   0.000000
     5  O    1.438460   2.431889   2.732838   2.658019   0.000000
     6  O    2.338142   2.806983   2.498781   3.169009   1.469170
     7  H    2.935538   3.466716   3.196679   3.663999   1.755988
     8  C    1.523800   2.513775   3.461113   2.730002   2.299711
     9  H    2.162001   3.462184   4.296608   3.725659   2.539344
    10  H    2.162004   2.742518   3.730345   2.507149   2.538660
    11  H    2.147870   2.768158   3.771990   3.088285   3.268581
    12  C    1.524260   2.523725   2.768308   3.466316   2.432003
    13  H    2.157072   3.466402   3.761103   4.291427   2.658841
    14  H    2.155868   2.779341   3.126491   3.774944   3.371155
    15  H    2.162669   2.768626   2.569168   3.760937   2.732407
    16  H    2.156056   1.089330   1.766712   1.769493   3.371165
                    6          7          8          9         10
     6  O    0.000000
     7  H    0.783850   0.000000
     8  C    3.625628   4.049749   0.000000
     9  H    3.910507   4.217195   1.088270   0.000000
    10  H    3.909775   4.216306   1.088260   1.769863   0.000000
    11  H    4.458437   4.976457   1.088520   1.768051   1.768028
    12  C    2.807532   3.467176   2.513835   2.742054   3.462202
    13  H    3.170834   3.665795   2.729672   2.506212   3.725163
    14  H    3.803848   4.502340   2.784332   3.118542   3.783392
    15  H    2.498827   3.196512   3.461057   3.729728   4.296470
    16  H    3.803733   4.502205   2.784098   3.783013   3.118882
                   11         12         13         14         15
    11  H    0.000000
    12  C    2.768809   0.000000
    13  H    3.088509   1.088710   0.000000
    14  H    2.595114   1.089320   1.769333   0.000000
    15  H    3.772623   1.086510   1.766379   1.766858   0.000000
    16  H    2.594195   2.779929   3.775214   2.591306   3.127797
                   16
    16  H    0.000000
 Stoichiometry    C4H10O2
 Framework group  C1[X(C4H10O2)]
 Deg. of freedom    42
 Full point group                 C1      NOp   1
 RotChk:  IX=0 Diff= 1.73D-03
 Largest Abelian subgroup         C1      NOp   1
 Largest concise Abelian subgroup C1      NOp   1
                         Standard orientation:                         
 ---------------------------------------------------------------------
 Center     Atomic      Atomic             Coordinates (Angstroms)
 Number     Number       Type             X           Y           Z
 ---------------------------------------------------------------------
      1          6           0        0.383381    0.000081    0.030601
      2          6           0        0.361063   -1.260314    0.887517
      3          1           0       -0.523507   -1.281497    1.518118
      4          1           0        0.356247   -2.145196    0.253321
      5          8           0       -0.723573   -0.001262   -0.887994
      6          8           0       -1.952039    0.000001   -0.082183
      7          1           0       -2.466430   -0.000872   -0.673641
      8          6           0        1.575943   -0.001983   -0.917956
      9          1           0        1.562575    0.882167   -1.552332
     10          1           0        1.561299   -0.887695   -1.550103
     11          1           0        2.498887   -0.001938   -0.340852
     12          6           0        0.361852    1.263407    0.883193
     13          1           0        0.358840    2.146224    0.246078
     14          1           0        1.243609    1.297695    1.521900
     15          1           0       -0.523198    1.287665    1.512956
     16          1           0        1.243147   -1.293608    1.525842
 ---------------------------------------------------------------------
 Rotational constants (GHZ):      4.5041915      2.7952095      2.7854318
 Leave Link  202 at Mon Jun 15 17:36:24 2020, MaxMem= 16106127360 cpu:         0.3
 (Enter /sw/contrib/gaussian/g09/E01/g09/l301.exe)
 Standard basis: CC-pVTZ (5D, 7F)
 Ernie: Thresh=  0.10000D-02 Tol=  0.10000D-05 Strict=F.
 Ernie:  18 primitive shells out of 236 were deleted.
 There are   360 symmetry adapted cartesian basis functions of A   symmetry.
 There are   320 symmetry adapted basis functions of A   symmetry.
   320 basis functions,   482 primitive gaussians,   360 cartesian basis functions
    25 alpha electrons       25 beta electrons
       nuclear repulsion energy       272.1681984526 Hartrees.
 IExCor=  419 DFT=T Ex+Corr=B2PLYPD3 ExCW=0 ScaHFX=  0.530000
 ScaDFX=  0.470000  0.470000  0.730000  0.730000 ScalE2=  0.270000  0.270000
 IRadAn=      5 IRanWt=     -1 IRanGd=            0 ICorTp=0 IEmpDi=141
 NAtoms=   16 NActive=   16 NUniq=   16 SFac= 1.00D+00 NAtFMM=   60 NAOKFM=F Big=F
 Integral buffers will be    131072 words long.
 Regular integral format.
 Two-electron integral symmetry is turned on.
 R6Disp:  Grimme-D3(BJ) Dispersion energy=       -0.0089892950 Hartrees.
 Nuclear repulsion after empirical dispersion term =      272.1592091576 Hartrees.
 Leave Link  301 at Mon Jun 15 17:36:24 2020, MaxMem= 16106127360 cpu:         1.1
 (Enter /sw/contrib/gaussian/g09/E01/g09/l302.exe)
 NPDir=0 NMtPBC=     1 NCelOv=     1 NCel=       1 NClECP=     1 NCelD=      1
         NCelK=      1 NCelE2=     1 NClLst=     1 CellRange=     0.0.
 One-electron integrals computed using PRISM.
 NBasis=   320 RedAO= T EigKep=  5.32D-04  NBF=   320
 NBsUse=   320 1.00D-06 EigRej= -1.00D+00 NBFU=   320
 Precomputing XC quadrature grid using
 IXCGrd= 4 IRadAn=           5 IRanWt=          -1 IRanGd=           0 AccXCQ= 0.00D+00.
 Generated NRdTot=       0 NPtTot=           0 NUsed=           0 NTot=          32
 NSgBfM=   360   360   360   360   360 MxSgAt=    16 MxSgA2=    16.
 Leave Link  302 at Mon Jun 15 17:36:25 2020, MaxMem= 16106127360 cpu:        12.6
 (Enter /sw/contrib/gaussian/g09/E01/g09/l303.exe)
 DipDrv:  MaxL=1.
 Leave Link  303 at Mon Jun 15 17:36:25 2020, MaxMem= 16106127360 cpu:         0.9
 (Enter /sw/contrib/gaussian/g09/E01/g09/l401.exe)
 Initial guess from the checkpoint file:  "/gscratch/ilahie/mccoygrp/data/TBHP/tbhp_180.chk"
 B after Tr=     0.000000    0.000000   -0.000000
         Rot=    1.000000    0.000014   -0.000481    0.000001 Ang=   0.06 deg.
 Guess basis will be translated and rotated to current coordinates.
 JPrj=2 DoOrth=T DoCkMO=T.
 Generating alternative initial guess.
 ExpMin= 1.03D-01 ExpMax= 1.53D+04 ExpMxC= 5.22D+02 IAcc=2 IRadAn=         4 AccDes= 0.00D+00
 Harris functional with IExCor=  419 and IRadAn=       4 diagonalized for initial guess.
 HarFok:  IExCor=  419 AccDes= 0.00D+00 IRadAn=         4 IDoV= 1 UseB2=F ITyADJ=14
 ICtDFT=  3500011 ScaDFX=  1.000000  1.000000  1.000000  1.000000
 FoFCou: FMM=F IPFlag=           0 FMFlag=      100000 FMFlg1=           0
         NFxFlg=           0 DoJE=T BraDBF=F KetDBF=T FulRan=T
         wScrn=  0.000000 ICntrl=     500 IOpCl=  0 I1Cent=   200000004 NGrid=           0
         NMat0=    1 NMatS0=      1 NMatT0=    0 NMatD0=    1 NMtDS0=    0 NMtDT0=    0
 Petite list used in FoFCou.
 Harris En= -308.975112204149    
 Leave Link  401 at Mon Jun 15 17:36:25 2020, MaxMem= 16106127360 cpu:        21.6
 (Enter /sw/contrib/gaussian/g09/E01/g09/l502.exe)
 Closed shell SCF:
 Using DIIS extrapolation, IDIIS=  1040.
 Integral symmetry usage will be decided dynamically.
 Keep R1 ints in memory in canonical form, NReq=1342893302.
 IVT=      420062 IEndB=      420062 NGot= 16106127360 MDV= 14786756819
 LenX= 14786756819 LenY= 14786626778
 Requested convergence on RMS density matrix=1.00D-08 within 128 cycles.
 Requested convergence on MAX density matrix=1.00D-06.
 Requested convergence on             energy=1.00D-06.
 No special actions if energy rises.
 FoFCou: FMM=F IPFlag=           0 FMFlag=           0 FMFlg1=           0
         NFxFlg=           0 DoJE=F BraDBF=F KetDBF=F FulRan=T
         wScrn=  0.000000 ICntrl=     600 IOpCl=  0 I1Cent=           0 NGrid=           0
         NMat0=    1 NMatS0=  51360 NMatT0=    0 NMatD0=    1 NMtDS0=    0 NMtDT0=    0
 Symmetry not used in FoFCou.
 Integral accuracy reduced to 1.0D-05 until final iterations.

 Cycle   1  Pass 0  IDiag  1:
 E= -308.243673172987    
 DIIS: error= 1.78D-03 at cycle   1 NSaved=   1.
 NSaved= 1 IEnMin= 1 EnMin= -308.243673172987     IErMin= 1 ErrMin= 1.78D-03
 ErrMax= 1.78D-03  0.00D+00 EMaxC= 1.00D-01 BMatC= 3.67D-04 BMatP= 3.67D-04
 IDIUse=3 WtCom= 9.82D-01 WtEn= 1.78D-02
 Coeff-Com:  0.100D+01
 Coeff-En:   0.100D+01
 Coeff:      0.100D+01
 Gap=     0.861 Goal=   None    Shift=    0.000
 GapD=    0.861 DampG=2.000 DampE=1.000 DampFc=2.0000 IDamp=-1.
 RMSDP=4.42D-05 MaxDP=3.31D-03              OVMax= 3.76D-03

 Cycle   2  Pass 0  IDiag  1:
 E= -308.243862227535     Delta-E=       -0.000189054549 Rises=F Damp=F
 DIIS: error= 3.71D-04 at cycle   2 NSaved=   2.
 NSaved= 2 IEnMin= 2 EnMin= -308.243862227535     IErMin= 2 ErrMin= 3.71D-04
 ErrMax= 3.71D-04  0.00D+00 EMaxC= 1.00D-01 BMatC= 2.55D-05 BMatP= 3.67D-04
 IDIUse=3 WtCom= 9.96D-01 WtEn= 3.71D-03
 Coeff-Com:  0.105D+00 0.895D+00
 Coeff-En:   0.000D+00 0.100D+01
 Coeff:      0.104D+00 0.896D+00
 Gap=     0.404 Goal=   None    Shift=    0.000
 RMSDP=1.50D-05 MaxDP=1.08D-03 DE=-1.89D-04 OVMax= 1.42D-03

 Cycle   3  Pass 0  IDiag  1:
 E= -308.243865027594     Delta-E=       -0.000002800058 Rises=F Damp=F
 DIIS: error= 2.30D-04 at cycle   3 NSaved=   3.
 NSaved= 3 IEnMin= 3 EnMin= -308.243865027594     IErMin= 3 ErrMin= 2.30D-04
 ErrMax= 2.30D-04  0.00D+00 EMaxC= 1.00D-01 BMatC= 2.20D-05 BMatP= 2.55D-05
 IDIUse=3 WtCom= 9.98D-01 WtEn= 2.30D-03
 Coeff-Com:  0.597D-02 0.480D+00 0.515D+00
 Coeff-En:   0.000D+00 0.453D+00 0.547D+00
 Coeff:      0.596D-02 0.479D+00 0.515D+00
 Gap=     0.404 Goal=   None    Shift=    0.000
 RMSDP=8.10D-06 MaxDP=5.10D-04 DE=-2.80D-06 OVMax= 7.91D-04

 Initial convergence to 1.0D-05 achieved.  Increase integral accuracy.
 Cycle   4  Pass 1  IDiag  1:
 E= -308.243887858237     Delta-E=       -0.000022830643 Rises=F Damp=F
 DIIS: error= 4.01D-05 at cycle   1 NSaved=   1.
 NSaved= 1 IEnMin= 1 EnMin= -308.243887858237     IErMin= 1 ErrMin= 4.01D-05
 ErrMax= 4.01D-05  0.00D+00 EMaxC= 1.00D-01 BMatC= 6.98D-07 BMatP= 6.98D-07
 IDIUse=1 WtCom= 1.00D+00 WtEn= 0.00D+00
 Coeff-Com:  0.100D+01
 Coeff:      0.100D+01
 Gap=     0.403 Goal=   None    Shift=    0.000
 RMSDP=8.10D-06 MaxDP=5.10D-04 DE=-2.28D-05 OVMax= 2.73D-04

 Cycle   5  Pass 1  IDiag  1:
 E= -308.243887518534     Delta-E=        0.000000339704 Rises=F Damp=F
 DIIS: error= 4.62D-05 at cycle   2 NSaved=   2.
 NSaved= 2 IEnMin= 1 EnMin= -308.243887858237     IErMin= 1 ErrMin= 4.01D-05
 ErrMax= 4.62D-05  0.00D+00 EMaxC= 1.00D-01 BMatC= 1.29D-06 BMatP= 6.98D-07
 IDIUse=1 WtCom= 1.00D+00 WtEn= 0.00D+00
 Coeff-Com:  0.578D+00 0.422D+00
 Coeff:      0.578D+00 0.422D+00
 Gap=     0.404 Goal=   None    Shift=    0.000
 RMSDP=1.78D-06 MaxDP=9.70D-05 DE= 3.40D-07 OVMax= 1.68D-04

 Cycle   6  Pass 1  IDiag  1:
 E= -308.243888355224     Delta-E=       -0.000000836690 Rises=F Damp=F
 DIIS: error= 6.08D-06 at cycle   3 NSaved=   3.
 NSaved= 3 IEnMin= 3 EnMin= -308.243888355224     IErMin= 3 ErrMin= 6.08D-06
 ErrMax= 6.08D-06  0.00D+00 EMaxC= 1.00D-01 BMatC= 5.82D-09 BMatP= 6.98D-07
 IDIUse=1 WtCom= 1.00D+00 WtEn= 0.00D+00
 Coeff-Com:  0.127D+00 0.114D+00 0.759D+00
 Coeff:      0.127D+00 0.114D+00 0.759D+00
 Gap=     0.404 Goal=   None    Shift=    0.000
 RMSDP=1.63D-07 MaxDP=1.29D-05 DE=-8.37D-07 OVMax= 1.45D-05

 Cycle   7  Pass 1  IDiag  1:
 E= -308.243888359436     Delta-E=       -0.000000004212 Rises=F Damp=F
 DIIS: error= 1.87D-06 at cycle   4 NSaved=   4.
 NSaved= 4 IEnMin= 4 EnMin= -308.243888359436     IErMin= 4 ErrMin= 1.87D-06
 ErrMax= 1.87D-06  0.00D+00 EMaxC= 1.00D-01 BMatC= 5.20D-10 BMatP= 5.82D-09
[...]
     4  H    2.156979   1.088690   1.766255   0.000000
     5  O    1.438460   2.431889   2.732838   2.658019   0.000000
     6  O    2.338142   2.806983   2.498781   3.169009   1.469170
     7  H    3.374223   3.929616   3.678811   4.043101   2.091688
     8  C    1.523800   2.513775   3.461113   2.730002   2.299711
     9  H    2.162001   3.462184   4.296608   3.725659   2.539344
    10  H    2.162004   2.742518   3.730345   2.507149   2.538660
    11  H    2.147870   2.768158   3.771990   3.088285   3.268581
    12  C    1.524260   2.523725   2.768308   3.466316   2.432003
    13  H    2.157072   3.466402   3.761103   4.291427   2.658841
    14  H    2.155868   2.779341   3.126491   3.774944   3.371155
    15  H    2.162669   2.768626   2.569168   3.760937   2.732407
    16  H    2.156056   1.089330   1.766712   1.769493   3.371165
                    6          7          8          9         10
     6  O    0.000000
     7  H    1.303850   0.000000
     8  C    3.625628   4.386115   0.000000
     9  H    3.910507   4.485126   1.088270   0.000000
    10  H    3.909775   4.484160   1.088260   1.769863   0.000000
    11  H    4.458437   5.355878   1.088520   1.768051   1.768028
    12  C    2.807532   3.930031   2.513835   2.742054   3.462202
    13  H    3.170834   4.044859   2.729672   2.506212   3.725163
    14  H    3.803848   4.979753   2.784332   3.118542   3.783392
    15  H    2.498827   3.678547   3.461057   3.729728   4.296470
    16  H    3.803733   4.979609   2.784098   3.783013   3.118882
                   11         12         13         14         15
    11  H    0.000000
    12  C    2.768809   0.000000
    13  H    3.088509   1.088710   0.000000
    14  H    2.595114   1.089320   1.769333   0.000000
    15  H    3.772623   1.086510   1.766379   1.766858   0.000000
    16  H    2.594195   2.779929   3.775214   2.591306   3.127797
                   16
    16  H    0.000000
 Stoichiometry    C4H10O2
 Framework group  C1[X(C4H10O2)]
 Deg. of freedom    42
 Full point group                 C1      NOp   1
 RotChk:  IX=0 Diff= 4.30D-16
 Largest Abelian subgroup         C1      NOp   1
 Largest concise Abelian subgroup C1      NOp   1
                         Standard orientation:                         
 ---------------------------------------------------------------------
 Center     Atomic      Atomic             Coordinates (Angstroms)
 Number     Number       Type             X           Y           Z
 ---------------------------------------------------------------------
      1          6           0        0.391296    0.000140    0.025040
      2          6           0        0.398322   -1.257945    0.885603
      3          1           0       -0.464095   -1.277309    1.546232
      4          1           0        0.371709   -2.144528    0.254327
      5          8           0       -0.746520   -0.003512   -0.855035
      6          8           0       -1.946620    0.000091   -0.007563
      7          1           0       -2.835499   -0.003881   -0.961451
      8          6           0        1.550615   -0.004642   -0.963860
      9          1           0        1.515538    0.877802   -1.599779
     10          1           0        1.514250   -0.892046   -1.592748
     11          1           0        2.492814   -0.003179   -0.418759
     12          6           0        0.399090    1.265754    0.874468
     13          1           0        0.374269    2.146857    0.235460
     14          1           0        1.302241    1.301632    1.482457
     15          1           0       -0.463834    1.291830    1.534154
     16          1           0        1.301782   -1.289651    1.493381
 ---------------------------------------------------------------------
 Rotational constants (GHZ):      4.4808394      2.7668613      2.7485122
 Leave Link  202 at Mon Jun 15 19:11:22 2020, MaxMem= 16106127360 cpu:         0.3
 (Enter /sw/contrib/gaussian/g09/E01/g09/l601.exe)
 Copying SCF densities to generalized density rwf, IOpCl= 0 IROHF=0.

 **********************************************************************

            Population analysis using the SCF density.

 **********************************************************************

 Orbital symmetries:
       Occupied  (A) (A) (A) (A) (A) (A) (A) (A) (A) (A) (A) (A)
                 (A) (A) (A) (A) (A) (A) (A) (A) (A) (A) (A) (A)
                 (A)
       Virtual   (A) (A) (A) (A) (A) (A) (A) (A) (A) (A) (A) (A)
                 (A) (A) (A) (A) (A) (A) (A) (A) (A) (A) (A) (A)
                 (A) (A) (A) (A) (A) (A) (A) (A) (A) (A) (A) (A)
                 (A) (A) (A) (A) (A) (A) (A) (A) (A) (A) (A) (A)
                 (A) (A) (A) (A) (A) (A) (A) (A) (A) (A) (A) (A)
                 (A) (A) (A) (A) (A) (A) (A) (A) (A) (A) (A) (A)
                 (A) (A) (A) (A) (A) (A) (A) (A) (A) (A) (A) (A)
                 (A) (A) (A) (A) (A) (A) (A) (A) (A) (A) (A) (A)
                 (A) (A) (A) (A) (A) (A) (A) (A) (A) (A) (A) (A)
                 (A) (A) (A) (A) (A) (A) (A) (A) (A) (A) (A) (A)
                 (A) (A) (A) (A) (A) (A) (A) (A) (A) (A) (A) (A)
                 (A) (A) (A) (A) (A) (A) (A) (A) (A) (A) (A) (A)
                 (A) (A) (A) (A) (A) (A) (A) (A) (A) (A) (A) (A)
                 (A) (A) (A) (A) (A) (A) (A) (A) (A) (A) (A) (A)
                 (A) (A) (A) (A) (A) (A) (A) (A) (A) (A) (A) (A)
                 (A) (A) (A) (A) (A) (A) (A) (A) (A) (A) (A) (A)
                 (A) (A) (A) (A) (A) (A) (A) (A) (A) (A) (A) (A)
                 (A) (A) (A) (A) (A) (A) (A) (A) (A) (A) (A) (A)
                 (A) (A) (A) (A) (A) (A) (A) (A) (A) (A) (A) (A)
                 (A) (A) (A) (A) (A) (A) (A) (A) (A) (A) (A) (A)
                 (A) (A) (A) (A) (A) (A) (A) (A) (A) (A) (A) (A)
                 (A) (A) (A) (A) (A) (A) (A) (A) (A) (A) (A) (A)
                 (A) (A) (A) (A) (A) (A) (A) (A) (A) (A) (A) (A)
                 (A) (A) (A) (A) (A) (A) (A) (A) (A) (A) (A) (A)
                 (A) (A) (A) (A) (A) (A) (A)
 The electronic state is 1-A.
 Alpha  occ. eigenvalues --  -19.79445 -19.77052 -10.67295 -10.60239 -10.59505
 Alpha  occ. eigenvalues --  -10.59504  -1.23124  -1.01160  -0.88710  -0.79577
 Alpha  occ. eigenvalues --   -0.79365  -0.63623  -0.55399  -0.54847  -0.53220
 Alpha  occ. eigenvalues --   -0.48609  -0.48254  -0.45871  -0.44573  -0.43442
 Alpha  occ. eigenvalues --   -0.42850  -0.40814  -0.39443  -0.37768  -0.31335
 Alpha virt. eigenvalues --    0.01449   0.08219   0.11028   0.12624   0.13241
 Alpha virt. eigenvalues --    0.14872   0.15012   0.16021   0.19563   0.19717
 Alpha virt. eigenvalues --    0.20268   0.21662   0.24434   0.25458   0.26503
 Alpha virt. eigenvalues --    0.30809   0.31838   0.32089   0.35555   0.39050
 Alpha virt. eigenvalues --    0.39146   0.42815   0.43298   0.46427   0.47220
 Alpha virt. eigenvalues --    0.48513   0.52247   0.52569   0.53130   0.53709
 Alpha virt. eigenvalues --    0.54040   0.54974   0.55437   0.56438   0.56655
 Alpha virt. eigenvalues --    0.57314   0.57581   0.59893   0.63746   0.67426
 Alpha virt. eigenvalues --    0.70413   0.70901   0.72990   0.79340   0.79422
 Alpha virt. eigenvalues --    0.82319   0.83390   0.84302   0.86140   0.89197
 Alpha virt. eigenvalues --    0.92798   0.94000   0.96034   0.96093   0.98858
 Alpha virt. eigenvalues --    1.01289   1.03018   1.04107   1.04433   1.05279
 Alpha virt. eigenvalues --    1.05986   1.09272   1.11648   1.12342   1.15634
 Alpha virt. eigenvalues --    1.16238   1.17901   1.18941   1.21805   1.24773
 Alpha virt. eigenvalues --    1.27703   1.29186   1.31608   1.32316   1.32605
 Alpha virt. eigenvalues --    1.34076   1.35711   1.36495   1.37625   1.38775
 Alpha virt. eigenvalues --    1.41068   1.41269   1.43510   1.44954   1.47279
 Alpha virt. eigenvalues --    1.47405   1.51066   1.55329   1.56184   1.57957
 Alpha virt. eigenvalues --    1.61149   1.61530   1.64244   1.64296   1.66843
 Alpha virt. eigenvalues --    1.67327   1.70838   1.73210   1.80385   1.81752
 Alpha virt. eigenvalues --    1.82136   1.85735   2.03232   2.07058   2.12364
 Alpha virt. eigenvalues --    2.18151   2.22838   2.30701   2.34674   2.35080
 Alpha virt. eigenvalues --    2.41526   2.43845   2.48587   2.51042   2.54830
 Alpha virt. eigenvalues --    2.57220   2.59696   2.61057   2.65319   2.67311
 Alpha virt. eigenvalues --    2.70079   2.70665   2.72929   2.73728   2.74334
 Alpha virt. eigenvalues --    2.81956   2.84566   2.85926   2.91496   2.92814
 Alpha virt. eigenvalues --    2.93535   2.94213   2.94937   2.95459   2.97897
 Alpha virt. eigenvalues --    2.99739   3.02229   3.05840   3.10490   3.10754
 Alpha virt. eigenvalues --    3.13969   3.15112   3.15328   3.17012   3.18696
 Alpha virt. eigenvalues --    3.19283   3.22740   3.24759   3.25853   3.27032
 Alpha virt. eigenvalues --    3.28159   3.28493   3.29774   3.30435   3.33561
 Alpha virt. eigenvalues --    3.35530   3.36258   3.37565   3.38221   3.42268
 Alpha virt. eigenvalues --    3.43605   3.44795   3.45866   3.48588   3.50106
 Alpha virt. eigenvalues --    3.52473   3.55254   3.56885   3.57711   3.59102
 Alpha virt. eigenvalues --    3.59596   3.60544   3.60830   3.62701   3.64477
 Alpha virt. eigenvalues --    3.70201   3.70733   3.71771   3.76787   3.78168
 Alpha virt. eigenvalues --    3.81790   3.82750   3.82933   3.84343   3.85149
 Alpha virt. eigenvalues --    3.87293   3.88862   3.90260   3.93849   3.94294
 Alpha virt. eigenvalues --    3.97490   4.01127   4.01274   4.04350   4.05932
 Alpha virt. eigenvalues --    4.08488   4.09525   4.13112   4.13825   4.14475
 Alpha virt. eigenvalues --    4.17445   4.18606   4.20773   4.24650   4.24688
 Alpha virt. eigenvalues --    4.25251   4.28352   4.30764   4.32735   4.33373
 Alpha virt. eigenvalues --    4.33716   4.35423   4.36422   4.41796   4.42949
 Alpha virt. eigenvalues --    4.45042   4.46135   4.46692   4.50268   4.50293
 Alpha virt. eigenvalues --    4.53549   4.57894   4.57981   4.67357   4.68675
 Alpha virt. eigenvalues --    4.75353   4.76664   4.82861   4.92193   4.93602
 Alpha virt. eigenvalues --    4.94616   4.94923   4.98488   5.00690   5.02152
 Alpha virt. eigenvalues --    5.02470   5.06264   5.08172   5.09256   5.21221
 Alpha virt. eigenvalues --    5.21504   5.25469   5.25506   5.28910   5.31557
 Alpha virt. eigenvalues --    5.31743   5.32163   5.34015   5.34356   5.39402
 Alpha virt. eigenvalues --    5.39573   5.41609   5.46186   5.46346   5.48722
 Alpha virt. eigenvalues --    5.49705   5.50499   5.54620   5.54630   5.57317
 Alpha virt. eigenvalues --    5.60880   5.61514   5.67276   5.69515   5.75171
 Alpha virt. eigenvalues --    5.75330   5.83958   5.96989   6.03032   6.03280
 Alpha virt. eigenvalues --    6.03650   6.06651   6.09116   6.12740   6.17234
 Alpha virt. eigenvalues --    6.18382   6.29264   6.34829   6.51656   6.57107
 Alpha virt. eigenvalues --    6.73103   6.91458   6.95117   7.05220   7.17280
 Alpha virt. eigenvalues --    7.25750   7.44811   7.54230   7.85544   9.48459
 Alpha virt. eigenvalues --   10.16529  11.21759  13.99487  14.06350  14.08062
          Condensed to atoms (all electrons):
               1          2          3          4          5          6
     1  C    4.694258   0.348559  -0.026505  -0.032533   0.321667  -0.045614
     2  C    0.348559   4.928186   0.410297   0.399677  -0.060035  -0.003520
     3  H   -0.026505   0.410297   0.553696  -0.025291  -0.005809   0.010023
     4  H   -0.032533   0.399677  -0.025291   0.580273   0.005385  -0.000682
     5  O    0.321667  -0.060035  -0.005809   0.005385   8.023261   0.065598
     6  O   -0.045614  -0.003520   0.010023  -0.000682   0.065598   8.000236
     7  H   -0.001029   0.000234  -0.000674   0.000030  -0.023595   0.260249
     8  C    0.350278  -0.049458   0.007075  -0.005604  -0.041522   0.004065
     9  H   -0.029207   0.008660  -0.000340  -0.000282   0.002085  -0.000247
    10  H   -0.029206  -0.009408  -0.000200   0.003776   0.002095  -0.000248
    11  H   -0.042833  -0.000358   0.000040   0.000128   0.003141  -0.000289
    12  C    0.348539  -0.074938  -0.005856   0.008372  -0.059938  -0.003559
    13  H   -0.032520   0.008369   0.000024  -0.000531   0.005377  -0.000686
    14  H   -0.033485   0.000484   0.000399  -0.000311   0.003956   0.000590
    15  H   -0.026515  -0.005857   0.001478   0.000023  -0.005832   0.010062
    16  H   -0.033476   0.399197  -0.030820  -0.028253   0.003954   0.000593
               7          8          9         10         11         12
     1  C   -0.001029   0.350278  -0.029207  -0.029206  -0.042833   0.348539
     2  C    0.000234  -0.049458   0.008660  -0.009408  -0.000358  -0.074938
     3  H   -0.000674   0.007075  -0.000340  -0.000200   0.000040  -0.005856
     4  H    0.000030  -0.005604  -0.000282   0.003776   0.000128   0.008372
     5  O   -0.023595  -0.041522   0.002085   0.002095   0.003141  -0.059938
     6  O    0.260249   0.004065  -0.000247  -0.000248  -0.000289  -0.003559
     7  H    0.488004  -0.001059   0.000024   0.000024   0.000014   0.000238
     8  C   -0.001059   4.875297   0.407972   0.407954   0.404497  -0.049443
     9  H    0.000024   0.407972   0.570984  -0.027971  -0.029079  -0.009417
    10  H    0.000024   0.407954  -0.027971   0.570946  -0.029067   0.008664
    11  H    0.000014   0.404497  -0.029079  -0.029067   0.603100  -0.000346
    12  C    0.000238  -0.049443  -0.009417   0.008664  -0.000346   4.928084
    13  H    0.000030  -0.005618   0.003780  -0.000281   0.000127   0.399704
    14  H   -0.000029  -0.005773   0.000631  -0.000267   0.000584   0.399193
    15  H   -0.000676   0.007076  -0.000199  -0.000340   0.000039   0.410307
    16  H   -0.000029  -0.005781  -0.000266   0.000632   0.000586   0.000479
              13         14         15         16
     1  C   -0.032520  -0.033485  -0.026515  -0.033476
     2  C    0.008369   0.000484  -0.005857   0.399197
     3  H    0.000024   0.000399   0.001478  -0.030820
     4  H   -0.000531  -0.000311   0.000023  -0.028253
     5  O    0.005377   0.003956  -0.005832   0.003954
     6  O   -0.000686   0.000590   0.010062   0.000593
     7  H    0.000030  -0.000029  -0.000676  -0.000029
     8  C   -0.005618  -0.005773   0.007076  -0.005781
     9  H    0.003780   0.000631  -0.000199  -0.000266
    10  H   -0.000281  -0.000267  -0.000340   0.000632
    11  H    0.000127   0.000584   0.000039   0.000586
    12  C    0.399704   0.399193   0.410307   0.000479
    13  H    0.580329  -0.028286  -0.025289  -0.000311
    14  H   -0.028286   0.605939  -0.030786  -0.001126
    15  H   -0.025289  -0.030786   0.553615   0.000400
    16  H   -0.000311  -0.001126   0.000400   0.605942
 Mulliken charges:
               1
     1  C    0.269624
     2  C   -0.300090
     3  H    0.112463
     4  H    0.095823
     5  O   -0.239787
     6  O   -0.296570
     7  H    0.278246
     8  C   -0.299957
     9  H    0.102872
    10  H    0.102897
    11  H    0.089716
    12  C   -0.300082
    13  H    0.095783
    14  H    0.088287
    15  H    0.112494
    16  H    0.088280
 Sum of Mulliken charges =  -0.00000
 Mulliken charges with hydrogens summed into heavy atoms:
               1
     1  C    0.269624
     2  C   -0.003524
     5  O   -0.239787
     6  O   -0.018324
     8  C   -0.004472
    12  C   -0.003517
 Electronic spatial extent (au):  <R**2>=            609.6014
 Charge=             -0.0000 electrons
 Dipole moment (field-independent basis, Debye):
    X=              0.0286    Y=             -0.0015    Z=             -0.3328  Tot=              0.3340
 Quadrupole moment (field-independent basis, Debye-Ang):
   XX=            -32.8583   YY=            -39.2955   ZZ=            -38.2616
   XY=              0.0139   XZ=              3.3314   YZ=              0.0043
 Traceless Quadrupole moment (field-independent basis, Debye-Ang):
   XX=              3.9469   YY=             -2.4904   ZZ=             -1.4565
   XY=              0.0139   XZ=              3.3314   YZ=              0.0043
 Octapole moment (field-independent basis, Debye-Ang**2):
  XXX=            -33.9201  YYY=             -0.0376  ZZZ=             -4.2458  XYY=             -2.8961
  XXY=             -0.0515  XXZ=            -12.5587  XZZ=             -7.5405  YZZ=              0.0073
  YYZ=             -3.0384  XYZ=             -0.0213
 Hexadecapole moment (field-independent basis, Debye-Ang**3):
 XXXX=           -288.1610 YYYY=           -221.0807 ZZZZ=           -212.7621 XXXY=              0.1878
 XXXZ=             47.5987 YYYX=             -0.0041 YYYZ=              0.0141 ZZZX=              6.6443
 ZZZY=              0.0133 XXYY=           -103.2839 XXZZ=            -81.3716 YYZZ=            -72.2538
 XXYZ=              0.0858 YYXZ=             -0.8468 ZZXY=              0.0328
 N-N= 2.690862385294D+02 E-N=-1.260076522978D+03  KE= 3.065892594796D+02
 No NMR shielding tensors so no spin-rotation constants.
 Leave Link  601 at Mon Jun 15 19:11:22 2020, MaxMem= 16106127360 cpu:        10.3
 (Enter /sw/contrib/gaussian/g09/E01/g09/l9999.exe)
 1\1\GINC-N2178\Scan\RB2PLYPD3-FC\CC-pVTZ\C4H10O2\B3M2A1\15-Jun-2020\1\
 \#P opt=(z-matrix) cc-pvtz b2plypd3 integral=ultrafine scf=verytight\\
 title\\0,1\C\C,1,B1\H,2,B2,1,A1\H,2,B3,1,A2,3,D1,0\O,1,B4,2,A3,3,D2,0\
 O,5,B5,1,A4,2,D3,0\H,6,B6,5,A5,1,D4,0\C,1,B7,5,A6,6,D5,0\H,8,B8,1,A7,5
 ,D6,0\H,8,B9,1,A8,5,D7,0\H,8,B10,1,A9,5,D8,0\C,1,B11,5,A10,6,D9,0\H,12
 ,B12,1,A11,5,D10,0\H,12,B13,1,A12,5,D11,0\H,12,B14,1,A13,5,D12,0\H,2,B
 15,1,A14,5,D13,0\\B1=1.52427,s,-1000,0.\B2=1.08654,s,-1000,0.\B3=1.088
 69,s,-1000,0.\B4=1.43846,s,-1000,0.\B5=1.46917,s,-1000,0.\B6=1.30385,s
 ,27,0.02\B7=1.5238,s,-1000,0.\B8=1.08827,s,-1000,0.\B9=1.08826,s,-1000
 ,0.\B10=1.08852,s,-1000,0.\B11=1.52426,s,-1000,0.\B12=1.08871,s,-1000,
 0.\B13=1.08932,s,-1000,0.\B14=1.08651,s,-1000,0.\B15=1.08933,s,-1000,0
 .\A1=110.75165,s,-1000,0.\A2=110.16131,s,-1000,0.\A3=110.30189,s,-1000
 ,0.\A4=107.04989,s,-1000,0.\A5=97.75057,s,-1000,0.\A6=101.81414,s,-100
 0,0.\A7=110.61896,s,-1000,0.\A8=110.6198,s,-1000,0.\A9=109.4843,s,-100
 0,0.\A10=110.31017,s,-1000,0.\A11=110.16825,s,-1000,0.\A12=110.03662,s
 ,-1000,0.\A13=110.74565,s,-1000,0.\A14=110.0502,s,-1000,0.\D1=120.1393
 3,s,-1000,0.\D2=-64.40927,s,-1000,0.\D3=61.95261,s,-1000,0.\D4=180.,s,
 -1000,0.\D5=-180.02255,s,-1000,0.\D6=60.3615,s,-1000,0.\D7=-60.28073,s
 ,-1000,0.\D8=180.04093,s,-1000,0.\D9=-61.98889,s,-1000,0.\D10=-55.8049
 9,s,-1000,0.\D11=-175.58268,s,-1000,0.\D12=64.34987,s,-1000,0.\D13=175
 .53075,s,-1000,0.\\Version=ES64L-G09RevE.01\State=1-A\HF=-308.2297852,
 -308.2438884,-308.2554731,-308.2648473,-308.2722977,-308.2780513,-308.
 2823185,-308.2852932,-308.2871384,-308.2879886,-308.28797,-308.2872072
 ,-308.285785,-308.2837945,-308.2813077,-308.2784052,-308.2751339,-308.
 271551,-308.2677036,-308.2636295,-308.2593795,-308.2549702,-308.250449
 7,-308.2458277,-308.2411442,-308.2364031,-308.2316208,-308.226808\MP2=
 -308.616158,-308.6306042,-308.6425402,-308.6522721,-308.6600904,-308.6
 662175,-308.6708634,-308.6742246,-308.6764637,-308.6777121,-308.678095
 9,-308.6777435,-308.6767356,-308.6751641,-308.6730997,-308.6706272,-30
 8.6677891,-308.6646439,-308.6612389,-308.6576102,-308.6538129,-308.649
 8582,-308.6457997,-308.6416416,-308.6374295,-308.6331632,-308.6288607,
 -308.6245329\RMSD=2.071e-09,6.694e-09,6.698e-09,6.698e-09,6.700e-09,6.
 702e-09,6.697e-09,6.693e-09,6.686e-09,6.683e-09,6.682e-09,6.687e-09,6.
 704e-09,6.731e-09,6.772e-09,6.820e-09,6.881e-09,6.956e-09,7.043e-09,7.
 147e-09,7.251e-09,7.375e-09,7.500e-09,7.648e-09,7.795e-09,7.953e-09,8.
 130e-09,8.320e-09\PG=C01 [X(C4H10O2)]\\@


 THERE IS NOTHING NOBLE IN BEING SUPERIOR TO SOME OTHER MAN.
 TRUE NOBILITY IS BEING SUPERIOR TO YOUR FORMER SELF.

                                                   -- HINDU PROVERB
 Job cpu time:       1 days  9 hours 17 minutes 12.3 seconds.
 File lengths (MBytes):  RWF=     57 Int=      0 D2E=      0 Chk=     16 Scr=      1
 Normal termination of Gaussian 09 at Mon Jun 15 19:11:23 2020.
