 Entering Gaussian System, Link 0=g16
 Input=tbhp_eq.gjf
 Output=tbhp_eq.log
 Initial command:
 /sw/contrib/gaussian/g16/B01/g16/l1.exe "/scr/Gau-23169.inp" -scrdir="/scr/"
 Entering Link 1 = /sw/contrib/gaussian/g16/B01/g16/l1.exe PID=     23180.
  
 Copyright (c) 1988-2017, Gaussian, Inc.  All Rights Reserved.
  
 This is part of the Gaussian(R) 16 program.  It is based on
 the Gaussian(R) 09 system (copyright 2009, Gaussian, Inc.),
 the Gaussian(R) 03 system (copyright 2003, Gaussian, Inc.),
 the Gaussian(R) 98 system (copyright 1998, Gaussian, Inc.),
 the Gaussian(R) 94 system (copyright 1995, Gaussian, Inc.),
 the Gaussian 92(TM) system (copyright 1992, Gaussian, Inc.),
 the Gaussian 90(TM) system (copyright 1990, Gaussian, Inc.),
 the Gaussian 88(TM) system (copyright 1988, Gaussian, Inc.),
 the Gaussian 86(TM) system (copyright 1986, Carnegie Mellon
 University), and the Gaussian 82(TM) system (copyright 1983,
 Carnegie Mellon University). Gaussian is a federally registered
 trademark of Gaussian, Inc.
  
 This software contains proprietary and confidential information,
 including trade secrets, belonging to Gaussian, Inc.
  
 This software is provided under written license and may be
 used, copied, transmitted, or stored only in accord with that
 written license.
  
 The following legend is applicable only to US Government
 contracts under FAR:
  
                    RESTRICTED RIGHTS LEGEND
  
 Use, reproduction and disclosure by the US Government is
 subject to restrictions as set forth in subparagraphs (a)
 and (c) of the Commercial Computer Software - Restricted
 Rights clause in FAR 52.227-19.
  
 Gaussian, Inc.
 340 Quinnipiac St., Bldg. 40, Wallingford CT 06492
  
  
 ---------------------------------------------------------------
 Warning -- This program may not be used in any manner that
 competes with the business of Gaussian, Inc. or will provide
 assistance to any competitor of Gaussian, Inc.  The licensee
 of this program is prohibited from giving any competitor of
 Gaussian, Inc. access to this program.  By using this program,
 the user acknowledges that Gaussian, Inc. is engaged in the
 business of creating and licensing software in the field of
 computational chemistry and represents and warrants to the
 licensee that it is not a competitor of Gaussian, Inc. and that
 it will not use this program in any manner prohibited above.
 ---------------------------------------------------------------
  

 Cite this work as:
 Gaussian 16, Revision B.01,
 M. J. Frisch, G. W. Trucks, H. B. Schlegel, G. E. Scuseria, 
 M. A. Robb, J. R. Cheeseman, G. Scalmani, V. Barone, 
 G. A. Petersson, H. Nakatsuji, X. Li, M. Caricato, A. V. Marenich, 
 J. Bloino, B. G. Janesko, R. Gomperts, B. Mennucci, H. P. Hratchian, 
 J. V. Ortiz, A. F. Izmaylov, J. L. Sonnenberg, D. Williams-Young, 
 F. Ding, F. Lipparini, F. Egidi, J. Goings, B. Peng, A. Petrone, 
 T. Henderson, D. Ranasinghe, V. G. Zakrzewski, J. Gao, N. Rega, 
 G. Zheng, W. Liang, M. Hada, M. Ehara, K. Toyota, R. Fukuda, 
 J. Hasegawa, M. Ishida, T. Nakajima, Y. Honda, O. Kitao, H. Nakai, 
 T. Vreven, K. Throssell, J. A. Montgomery, Jr., J. E. Peralta, 
 F. Ogliaro, M. J. Bearpark, J. J. Heyd, E. N. Brothers, K. N. Kudin, 
 V. N. Staroverov, T. A. Keith, R. Kobayashi, J. Normand, 
 K. Raghavachari, A. P. Rendell, J. C. Burant, S. S. Iyengar, 
 J. Tomasi, M. Cossi, J. M. Millam, M. Klene, C. Adamo, R. Cammi, 
 J. W. Ochterski, R. L. Martin, K. Morokuma, O. Farkas, 
 J. B. Foresman, and D. J. Fox, Gaussian, Inc., Wallingford CT, 2016.
 
 ******************************************
 Gaussian 16:  ES64L-G16RevB.01 20-Dec-2017
                14-Sep-2020 
 ******************************************
 %nproc=28
 Will use up to   28 processors via shared memory.
 %mem=120GB
 %chk=/gscratch/ilahie/abmccoy/milester/tbhp/tbhp_eq.chk
 ----------------------------------------------------------------------
 #p opt=(z-matrix) cc-pvtz b2plypd3 integral=ultrafine scf=verytight de
 nsity=current
 ----------------------------------------------------------------------
 1/10=7,18=40,38=1/1,3;
 2/12=2,17=6,18=5,29=3,40=1/2;
 3/5=16,6=1,11=9,25=1,30=1,71=1,74=-60,75=-5/1,2,3;
 4//1;
 5/5=2,17=3,38=5/2;
 8/6=4,10=1/1;
 9/15=2,16=-3/6;
 10/5=1/2;
 6/7=2,8=2,9=2,10=2,22=-1/1;
 7/12=2,29=1/1,2,3,16;
 1/10=7,18=40/3(2);
 2/29=3/2;
 99//99;
 2/29=3/2;
 3/5=16,6=1,11=9,25=1,30=1,71=1,74=-60,75=-5/1,2,3;
 4/5=5,16=3,69=1/1;
 5/5=2,17=3,38=5/2;
 8/6=4,10=1/1;
 9/15=2,16=-3/6;
 10/5=1/2;
 7/12=2/1,2,3,16;
 1/18=40/3(-8);
 2/29=3/2;
 6/7=2,8=2,9=2,10=2,22=-1/1;
 99/9=10/99;
 Leave Link    1 at Mon Sep 14 09:35:06 2020, MaxMem= 16106127360 cpu:               5.2 elap:               0.2
 (Enter /sw/contrib/gaussian/g16/B01/g16/l101.exe)
 -----
 title
 -----
 Symbolic Z-matrix:
 Charge =  0 Multiplicity = 1
 C
 C                    1    B1
 H                    2    B2       1    A1
 H                    2    B3       1    A2       3    D1       0
 O                    1    B4       2    A3       3    D2       0
 O                    5    B5       1    A4       2    D3       0
 H                    6    B6       5    A5       1    D4       0
 C                    1    B7       5    A6       6    D5       0
 H                    8    B8       1    A7       5    D6       0
 H                    8    B9       1    A8       5    D7       0
 H                    8    B10      1    A9       5    D8       0
 C                    1    B11      5    A10      6    D9       0
 H                    12   B12      1    A11      5    D10      0
 H                    12   B13      1    A12      5    D11      0
 H                    12   B14      1    A13      5    D12      0
 H                    2    B15      1    A14      5    D13      0
       Variables:
  B1                    1.52334 -1        0.     
  B2                    1.08746 -1        0.     
  B3                    1.08948 -1        0.     
  B4                    1.4455  -1        0.     
  B5                    1.4555  -1        0.     
  B6                    0.72475Scan 55    0.02   
  B7                    1.5233  -1        0.     
  B8                    1.08805 -1        0.     
  B9                    1.08841 -1        0.     
  B10                   1.0886  -1        0.     
  B11                   1.52274 -1        0.     
  B12                   1.08847 -1        0.     
  B13                   1.08943 -1        0.     
  B14                   1.08683 -1        0.     
  B15                   1.0891  -1        0.     
  A1                  110.73608 -1        0.     
  A2                  110.35166 -1        0.     
  A3                  110.47113 -1        0.     
  A4                  108.92603 -1        0.     
  A5                   99.80162 -1        0.     
  A6                  101.69537 -1        0.     
  A7                  110.46045 -1        0.     
  A8                  110.70872 -1        0.     
  A9                  109.61474 -1        0.     
  A10                 110.04188 -1        0.     
  A11                 110.18343 -1        0.     
  A12                 110.18047 -1        0.     
  A13                 110.55685 -1        0.     
  A14                 110.22064 -1        0.     
  D1                  120.77343 -1        0.     
  D2                  -65.43867 -1        0.     
  D3                   63.45068 -1        0.     
  D4                 -112.20822 -1        0.     
  D5                 -178.43127 -1        0.     
  D6                   59.35993 -1        0.     
  D7                  -61.12715 -1        0.     
  D8                  179.05466 -1        0.     
  D9                  -60.38297 -1        0.     
  D10                 -56.46759 -1        0.     
  D11                -176.37616 -1        0.     
  D12                  63.60566 -1        0.     
  D13                 174.9579  -1        0.     
 
 ITRead=  0  0  0  0  0  0  0  0  0  0  0  0  0  0  0  0
 MicOpt= -1 -1 -1 -1 -1 -1 -1 -1 -1 -1 -1 -1 -1 -1 -1 -1
 NAtoms=     16 NQM=       16 NQMF=       0 NMMI=      0 NMMIF=      0
                NMic=       0 NMicF=      0.
                    Isotopes and Nuclear Properties:
 (Nuclear quadrupole moments (NQMom) in fm**2, nuclear magnetic moments (NMagM)
  in nuclear magnetons)

  Atom         1           2           3           4           5           6           7           8           9          10
 IAtWgt=          12          12           1           1          16          16           1          12           1           1
 AtmWgt=  12.0000000  12.0000000   1.0078250   1.0078250  15.9949146  15.9949146   1.0078250  12.0000000   1.0078250   1.0078250
 NucSpn=           0           0           1           1           0           0           1           0           1           1
 AtZEff=  -0.0000000  -0.0000000  -0.0000000  -0.0000000  -0.0000000  -0.0000000  -0.0000000  -0.0000000  -0.0000000  -0.0000000
 NQMom=    0.0000000   0.0000000   0.0000000   0.0000000   0.0000000   0.0000000   0.0000000   0.0000000   0.0000000   0.0000000
 NMagM=    0.0000000   0.0000000   2.7928460   2.7928460   0.0000000   0.0000000   2.7928460   0.0000000   2.7928460   2.7928460
 AtZNuc=   6.0000000   6.0000000   1.0000000   1.0000000   8.0000000   8.0000000   1.0000000   6.0000000   1.0000000   1.0000000

  Atom        11          12          13          14          15          16
 IAtWgt=           1          12           1           1           1           1
 AtmWgt=   1.0078250  12.0000000   1.0078250   1.0078250   1.0078250   1.0078250
 NucSpn=           1           0           1           1           1           1
 AtZEff=  -0.0000000  -0.0000000  -0.0000000  -0.0000000  -0.0000000  -0.0000000
 NQMom=    0.0000000   0.0000000   0.0000000   0.0000000   0.0000000   0.0000000
 NMagM=    2.7928460   0.0000000   2.7928460   2.7928460   2.7928460   2.7928460
 AtZNuc=   1.0000000   6.0000000   1.0000000   1.0000000   1.0000000   1.0000000
 Leave Link  101 at Mon Sep 14 09:35:07 2020, MaxMem= 16106127360 cpu:               7.2 elap:               0.4
 (Enter /sw/contrib/gaussian/g16/B01/g16/l103.exe)

 GradGradGradGradGradGradGradGradGradGradGradGradGradGradGradGradGradGrad
 Berny optimization.
 Initialization pass.
                       ----------------------------
                       !    Initial Parameters    !
                       ! (Angstroms and Degrees)  !
 ----------------------                            ----------------------
 !      Name          Value   Derivative information (Atomic Units)     !
 ------------------------------------------------------------------------
 !       B1          1.5233   Frozen                                    !
 !       B2          1.0875   Frozen                                    !
 !       B3          1.0895   Frozen                                    !
 !       B4          1.4455   Frozen                                    !
 !       B5          1.4555   Frozen                                    !
 !       B6          0.7247   Scan                                      !
 !       B7          1.5233   Frozen                                    !
 !       B8          1.0881   Frozen                                    !
 !       B9          1.0884   Frozen                                    !
 !       B10         1.0886   Frozen                                    !
 !       B11         1.5227   Frozen                                    !
 !       B12         1.0885   Frozen                                    !
 !       B13         1.0894   Frozen                                    !
 !       B14         1.0868   Frozen                                    !
 !       B15         1.0891   Frozen                                    !
 !       A1        110.7361   Frozen                                    !
 !       A2        110.3517   Frozen                                    !
 !       A3        110.4711   Frozen                                    !
 !       A4        108.926    Frozen                                    !
 !       A5         99.8016   Frozen                                    !
 !       A6        101.6954   Frozen                                    !
 !       A7        110.4605   Frozen                                    !
 !       A8        110.7087   Frozen                                    !
 !       A9        109.6147   Frozen                                    !
 !       A10       110.0419   Frozen                                    !
 !       A11       110.1834   Frozen                                    !
 !       A12       110.1805   Frozen                                    !
 !       A13       110.5568   Frozen                                    !
 !       A14       110.2206   Frozen                                    !
 !       D1        120.7734   Frozen                                    !
 !       D2        -65.4387   Frozen                                    !
 !       D3         63.4507   Frozen                                    !
 !       D4       -112.2082   Frozen                                    !
 !       D5       -178.4313   Frozen                                    !
 !       D6         59.3599   Frozen                                    !
 !       D7        -61.1272   Frozen                                    !
 !       D8        179.0547   Frozen                                    !
 !       D9        -60.383    Frozen                                    !
 !       D10       -56.4676   Frozen                                    !
 !       D11      -176.3762   Frozen                                    !
 !       D12        63.6057   Frozen                                    !
 !       D13       174.9579   Frozen                                    !
 ------------------------------------------------------------------------
 Trust Radius=3.00D-01 FncErr=1.00D-07 GrdErr=1.00D-07 EigMax=2.50D+02 EigMin=1.00D-04
 Number of optimizations in scan=  56
 Number of steps in this run=     52 maximum allowed number of steps=    100.
 GradGradGradGradGradGradGradGradGradGradGradGradGradGradGradGradGradGrad

 Leave Link  103 at Mon Sep 14 09:35:07 2020, MaxMem= 16106127360 cpu:               1.5 elap:               0.1
 (Enter /sw/contrib/gaussian/g16/B01/g16/l202.exe)
 ---------------------------------------------------------------------------------------------------
                            Z-MATRIX (ANGSTROMS AND DEGREES)
   CD    Cent   Atom    N1       Length/X        N2       Alpha/Y        N3        Beta/Z          J
 ---------------------------------------------------------------------------------------------------
      1      1  C 
      2      2  C        1   1.523337(     1)
      3      3  H        2   1.087457(     2)      1  110.736(    16)
      4      4  H        2   1.089482(     3)      1  110.352(    17)      3  120.773(    30)      0
      5      5  O        1   1.445503(     4)      2  110.471(    18)      3  -65.439(    31)      0
      6      6  O        5   1.455503(     5)      1  108.926(    19)      2   63.451(    32)      0
      7      7  H        6   0.724747(     6)      5   99.802(    20)      1 -112.208(    33)      0
      8      8  C        1   1.523301(     7)      5  101.695(    21)      6 -178.431(    34)      0
      9      9  H        8   1.088054(     8)      1  110.460(    22)      5   59.360(    35)      0
     10     10  H        8   1.088412(     9)      1  110.709(    23)      5  -61.127(    36)      0
     11     11  H        8   1.088599(    10)      1  109.615(    24)      5  179.055(    37)      0
     12     12  C        1   1.522740(    11)      5  110.042(    25)      6  -60.383(    38)      0
     13     13  H       12   1.088473(    12)      1  110.183(    26)      5  -56.468(    39)      0
     14     14  H       12   1.089428(    13)      1  110.180(    27)      5 -176.376(    40)      0
     15     15  H       12   1.086831(    14)      1  110.557(    28)      5   63.606(    41)      0
     16     16  H        2   1.089104(    15)      1  110.221(    29)      5  174.958(    42)      0
 ---------------------------------------------------------------------------------------------------
                         Z-Matrix orientation:                         
 ---------------------------------------------------------------------
 Center     Atomic      Atomic             Coordinates (Angstroms)
 Number     Number       Type             X           Y           Z
 ---------------------------------------------------------------------
      1          6           0        0.000000    0.000000    0.000000
      2          6           0        0.000000    0.000000    1.523337
      3          1           0        1.017013    0.000000    1.908366
      4          1           0       -0.522630    0.877646    1.902238
      5          8           0        0.562903    1.231683   -0.505543
      6          8           0        1.956393    1.317742   -0.094120
      7          1           0        1.914221    1.873699    0.368905
      8          6           0       -1.419029    0.060132   -0.550622
      9          1           0       -1.403412    0.113576   -1.637251
     10          1           0       -1.944710    0.931877   -0.165447
     11          1           0       -1.964386   -0.834031   -0.253794
     12          6           0        0.761751   -1.191946   -0.563683
     13          1           0        0.752456   -1.163113   -1.651735
     14          1           0        0.299975   -2.122447   -0.235381
     15          1           0        1.794420   -1.179646   -0.225091
     16          1           0       -0.504853   -0.888577    1.899771
 ---------------------------------------------------------------------
                    Distance matrix (angstroms):
                    1          2          3          4          5
     1  C    0.000000
     2  C    1.523337   0.000000
     3  H    2.162447   1.087457   0.000000
     4  H    2.159147   1.089482   1.772231   0.000000
     5  O    1.445503   2.439315   2.747766   2.664796   0.000000
     6  O    2.360673   2.860085   2.574651   3.213205   1.455503
     7  H    2.703901   2.916797   2.585666   3.046552   1.732889
     8  C    1.523301   2.513676   3.461870   2.736491   2.302742
     9  H    2.159411   3.460026   4.294503   3.726602   2.529293
    10  H    2.162791   2.739030   3.733751   2.510094   2.548269
    11  H    2.149146   2.777159   3.776147   3.107567   3.273797
    12  C    1.522740   2.521240   2.756252   3.466066   2.432467
    13  H    2.155748   3.464116   3.754616   4.292000   2.661716
    14  H    2.156426   2.772698   3.100738   3.774474   3.375250
    15  H    2.159207   2.769207   2.558821   3.758551   2.722094
    16  H    2.157215   1.089104   1.762305   1.766314   3.379518
                    6          7          8          9         10
     6  O    0.000000
     7  H    0.724747   0.000000
     8  C    3.630903   3.904499   0.000000
     9  H    3.888388   4.257861   1.088054   0.000000
    10  H    3.920789   4.007981   1.088412   1.768850   0.000000
    11  H    4.475280   4.771074   1.088599   1.768221   1.768227
    12  C    2.818899   3.405302   2.514691   2.746792   3.463257
    13  H    3.167060   3.828173   2.724725   2.505576   3.724613
    14  H    3.820809   4.352027   2.796069   3.141109   3.791095
    15  H    2.506060   3.112892   3.459664   3.727298   4.294553
    16  H    3.860204   3.978145   2.782120   3.784474   3.106826
                   11         12         13         14         15
    11  H    0.000000
    12  C    2.766940   0.000000
    13  H    3.073070   1.088473   0.000000
    14  H    2.605318   1.089428   1.769497   0.000000
    15  H    3.774770   1.086831   1.766713   1.767016   0.000000
    16  H    2.602125   2.786561   3.777484   2.594042   3.144267
                   16
    16  H    0.000000
 Stoichiometry    C4H10O2
 Framework group  C1[X(C4H10O2)]
 Deg. of freedom    42
 Full point group                 C1      NOp   1
 Largest Abelian subgroup         C1      NOp   1
 Largest concise Abelian subgroup C1      NOp   1
                         Standard orientation:                         
 ---------------------------------------------------------------------
 Center     Atomic      Atomic             Coordinates (Angstroms)
 Number     Number       Type             X           Y           Z
 ---------------------------------------------------------------------
      1          6           0        0.383615    0.000047    0.034134
      2          6           0        0.336288   -1.213471    0.953748
      3          1           0       -0.541766   -1.177165    1.594269
      4          1           0        0.310349   -2.131844    0.368182
      5          8           0       -0.724546   -0.025221   -0.893669
      6          8           0       -1.969060    0.073871   -0.145435
      7          1           0       -2.238444   -0.588093   -0.265825
      8          6           0        1.577708   -0.070105   -0.909088
      9          1           0        1.570202    0.773981   -1.595619
     10          1           0        1.557259   -0.991546   -1.488026
     11          1           0        2.500797   -0.041964   -0.332753
     12          6           0        0.376122    1.303937    0.820615
     13          1           0        0.402754    2.153100    0.140183
     14          1           0        1.246071    1.353424    1.474520
     15          1           0       -0.520258    1.376346    1.430911
     16          1           0        1.219489   -1.237886    1.590544
 ---------------------------------------------------------------------
 Rotational constants (GHZ):           4.4938937           2.7896875           2.7857244
 Leave Link  202 at Mon Sep 14 09:35:08 2020, MaxMem= 16106127360 cpu:               1.4 elap:               0.1
 (Enter /sw/contrib/gaussian/g16/B01/g16/l301.exe)
 Standard basis: CC-pVTZ (5D, 7F)
 Ernie: Thresh=  0.10000D-02 Tol=  0.10000D-05 Strict=F.
 Ernie:  18 primitive shells out of 236 were deleted.
 There are   360 symmetry adapted cartesian basis functions of A   symmetry.
 There are   320 symmetry adapted basis functions of A   symmetry.
   320 basis functions,   482 primitive gaussians,   360 cartesian basis functions
    25 alpha electrons       25 beta electrons
       nuclear repulsion energy       272.7264975739 Hartrees.
 IExCor=  419 DFT=T Ex+Corr=B2PLYPD3 ExCW=0 ScaHFX=  0.530000
 ScaDFX=  0.470000  0.470000  0.730000  0.730000 ScalE2=  0.270000  0.270000
 IRadAn=      5 IRanWt=     -1 IRanGd=            0 ICorTp=0 IEmpDi=141
 NAtoms=   16 NActive=   16 NUniq=   16 SFac= 1.00D+00 NAtFMM=   60 NAOKFM=F Big=F
 Integral buffers will be    131072 words long.
 Regular integral format.
 Two-electron integral symmetry is turned on.
 R6Disp:  Grimme-D3(BJ) Dispersion energy=       -0.0090675161 Hartrees.
 Nuclear repulsion after empirical dispersion term =      272.7174300578 Hartrees.
 Leave Link  301 at Mon Sep 14 09:35:08 2020, MaxMem= 16106127360 cpu:               3.7 elap:               0.2
 (Enter /sw/contrib/gaussian/g16/B01/g16/l302.exe)
 NPDir=0 NMtPBC=     1 NCelOv=     1 NCel=       1 NClECP=     1 NCelD=      1
         NCelK=      1 NCelE2=     1 NClLst=     1 CellRange=     0.0.
 One-electron integrals computed using PRISM.
 One-electron integral symmetry used in STVInt
 NBasis=   320 RedAO= T EigKep=  5.26D-04  NBF=   320
 NBsUse=   320 1.00D-06 EigRej= -1.00D+00 NBFU=   320
 Precomputing XC quadrature grid using
 IXCGrd= 4 IRadAn=           5 IRanWt=          -1 IRanGd=           0 AccXCQ= 0.00D+00.
 Generated NRdTot=       0 NPtTot=           0 NUsed=           0 NTot=          32
 NSgBfM=   360   360   360   360   360 MxSgAt=    16 MxSgA2=    16.
 Leave Link  302 at Mon Sep 14 09:35:09 2020, MaxMem= 16106127360 cpu:              12.2 elap:               0.5
 (Enter /sw/contrib/gaussian/g16/B01/g16/l303.exe)
 DipDrv:  MaxL=1.
 Leave Link  303 at Mon Sep 14 09:35:10 2020, MaxMem= 16106127360 cpu:               5.5 elap:               0.3
 (Enter /sw/contrib/gaussian/g16/B01/g16/l401.exe)
 ExpMin= 1.03D-01 ExpMax= 1.53D+04 ExpMxC= 5.22D+02 IAcc=3 IRadAn=         5 AccDes= 0.00D+00
 Harris functional with IExCor=  419 and IRadAn=       5 diagonalized for initial guess.
 HarFok:  IExCor=  419 AccDes= 0.00D+00 IRadAn=         5 IDoV= 1 UseB2=F ITyADJ=14
 ICtDFT=  3500011 ScaDFX=  1.000000  1.000000  1.000000  1.000000
 FoFCou: FMM=F IPFlag=           0 FMFlag=      100000 FMFlg1=           0
         NFxFlg=           0 DoJE=T BraDBF=F KetDBF=T FulRan=T
         wScrn=  0.000000 ICntrl=       500 IOpCl=  0 I1Cent=   200000004 NGrid=           0
         NMat0=    1 NMatS0=      1 NMatT0=    0 NMatD0=    1 NMtDS0=    0 NMtDT0=    0
 Petite list used in FoFCou.
 Harris En= -308.934739061318    
 JPrj=0 DoOrth=F DoCkMO=F.
 Leave Link  401 at Mon Sep 14 09:35:11 2020, MaxMem= 16106127360 cpu:              22.9 elap:               0.9
 (Enter /sw/contrib/gaussian/g16/B01/g16/l502.exe)
 Integral symmetry usage will be decided dynamically.
 Closed shell SCF:
 Using DIIS extrapolation, IDIIS=  1040.
 NGot= 16106127360 LenX= 16105854818 LenY= 16105724777
 Requested convergence on RMS density matrix=1.00D-08 within 128 cycles.
 Requested convergence on MAX density matrix=1.00D-06.
 Requested convergence on             energy=1.00D-06.
 No special actions if energy rises.
 Fock matrices will be formed incrementally for  20 cycles.
 Integral accuracy reduced to 1.0D-05 until final iterations.

 Cycle   1  Pass 0  IDiag  1:
 FoFJK:  IHMeth= 1 ICntrl=       0 DoSepK=F KAlg= 0 I1Cent=           0 FoldK=F
 IRaf= 990000000 NMat=       1 IRICut=       1 DoRegI=T DoRafI=F ISym2E= 0 IDoP0=0 IntGTp=1.
 FoFCou: FMM=F IPFlag=           0 FMFlag=      100000 FMFlg1=           0
         NFxFlg=           0 DoJE=F BraDBF=F KetDBF=F FulRan=T
         wScrn=  0.000000 ICntrl=         0 IOpCl=  0 I1Cent=           0 NGrid=           0
         NMat0=    1 NMatS0=      1 NMatT0=    0 NMatD0=    1 NMtDS0=    0 NMtDT0=    0
 Symmetry not used in FoFCou.
 E= -307.897241554205    
 DIIS: error= 3.52D-02 at cycle   1 NSaved=   1.
 NSaved= 1 IEnMin= 1 EnMin= -307.897241554205     IErMin= 1 ErrMin= 3.52D-02
 ErrMax= 3.52D-02  0.00D+00 EMaxC= 1.00D-01 BMatC= 3.99D-01 BMatP= 3.99D-01
 IDIUse=3 WtCom= 6.48D-01 WtEn= 3.52D-01
 Coeff-Com:  0.100D+01
 Coeff-En:   0.100D+01
 Coeff:      0.100D+01
 Gap=     0.510 Goal=   None    Shift=    0.000
 GapD=    0.510 DampG=2.000 DampE=0.500 DampFc=1.0000 IDamp=-1.
 RMSDP=1.86D-03 MaxDP=5.50D-02              OVMax= 1.47D-01

 Cycle   2  Pass 0  IDiag  1:
 RMSU=  1.85D-03    CP:  9.85D-01
 E= -308.015029276110     Delta-E=       -0.117787721906 Rises=F Damp=F
 DIIS: error= 2.92D-02 at cycle   2 NSaved=   2.
 NSaved= 2 IEnMin= 2 EnMin= -308.015029276110     IErMin= 2 ErrMin= 2.92D-02
 ErrMax= 2.92D-02  0.00D+00 EMaxC= 1.00D-01 BMatC= 2.16D-01 BMatP= 3.99D-01
 IDIUse=3 WtCom= 7.08D-01 WtEn= 2.92D-01
 Coeff-Com:  0.416D+00 0.584D+00
 Coeff-En:   0.348D+00 0.652D+00
 Coeff:      0.397D+00 0.603D+00
 Gap=     0.449 Goal=   None    Shift=    0.000
 RMSDP=1.05D-03 MaxDP=3.34D-02 DE=-1.18D-01 OVMax= 7.49D-02

 Cycle   3  Pass 0  IDiag  1:
 RMSU=  3.98D-04    CP:  9.94D-01  4.78D-01
 E= -308.185208541948     Delta-E=       -0.170179265838 Rises=F Damp=F
 DIIS: error= 4.60D-03 at cycle   3 NSaved=   3.
 NSaved= 3 IEnMin= 3 EnMin= -308.185208541948     IErMin= 3 ErrMin= 4.60D-03
 ErrMax= 4.60D-03  0.00D+00 EMaxC= 1.00D-01 BMatC= 1.48D-02 BMatP= 2.16D-01
 IDIUse=3 WtCom= 9.54D-01 WtEn= 4.60D-02
 Coeff-Com:  0.100D+00 0.245D+00 0.655D+00
 Coeff-En:   0.000D+00 0.000D+00 0.100D+01
 Coeff:      0.954D-01 0.233D+00 0.671D+00
 Gap=     0.439 Goal=   None    Shift=    0.000
 RMSDP=2.39D-04 MaxDP=1.09D-02 DE=-1.70D-01 OVMax= 2.28D-02

 Cycle   4  Pass 0  IDiag  1:
 RMSU=  1.84D-04    CP:  9.94D-01  5.17D-01  6.59D-01
 E= -308.193034536376     Delta-E=       -0.007825994428 Rises=F Damp=F
 DIIS: error= 2.15D-03 at cycle   4 NSaved=   4.
 NSaved= 4 IEnMin= 4 EnMin= -308.193034536376     IErMin= 4 ErrMin= 2.15D-03
 ErrMax= 2.15D-03  0.00D+00 EMaxC= 1.00D-01 BMatC= 3.10D-03 BMatP= 1.48D-02
 IDIUse=3 WtCom= 9.78D-01 WtEn= 2.15D-02
 Coeff-Com: -0.664D-02 0.407D-01 0.360D+00 0.606D+00
 Coeff-En:   0.000D+00 0.000D+00 0.143D+00 0.857D+00
 Coeff:     -0.650D-02 0.398D-01 0.356D+00 0.611D+00
 Gap=     0.422 Goal=   None    Shift=    0.000
 RMSDP=9.18D-05 MaxDP=4.98D-03 DE=-7.83D-03 OVMax= 7.77D-03

 Cycle   5  Pass 0  IDiag  1:
 RMSU=  3.07D-05    CP:  9.93D-01  5.24D-01  7.88D-01  6.29D-01
 E= -308.195087196858     Delta-E=       -0.002052660482 Rises=F Damp=F
 DIIS: error= 3.61D-04 at cycle   5 NSaved=   5.
 NSaved= 5 IEnMin= 5 EnMin= -308.195087196858     IErMin= 5 ErrMin= 3.61D-04
 ErrMax= 3.61D-04  0.00D+00 EMaxC= 1.00D-01 BMatC= 2.50D-05 BMatP= 3.10D-03
 IDIUse=3 WtCom= 9.96D-01 WtEn= 3.61D-03
 Coeff-Com: -0.457D-02 0.458D-02 0.843D-01 0.177D+00 0.738D+00
 Coeff-En:   0.000D+00 0.000D+00 0.000D+00 0.000D+00 0.100D+01
 Coeff:     -0.455D-02 0.457D-02 0.840D-01 0.177D+00 0.739D+00
 Gap=     0.422 Goal=   None    Shift=    0.000
 RMSDP=1.43D-05 MaxDP=4.41D-04 DE=-2.05D-03 OVMax= 1.34D-03

 Cycle   6  Pass 0  IDiag  1:
 RMSU=  9.09D-06    CP:  9.93D-01  5.21D-01  7.94D-01  6.75D-01  8.50D-01
 E= -308.195107383138     Delta-E=       -0.000020186281 Rises=F Damp=F
 DIIS: error= 9.42D-05 at cycle   6 NSaved=   6.
 NSaved= 6 IEnMin= 6 EnMin= -308.195107383138     IErMin= 6 ErrMin= 9.42D-05
 ErrMax= 9.42D-05  0.00D+00 EMaxC= 1.00D-01 BMatC= 3.07D-06 BMatP= 2.50D-05
 IDIUse=1 WtCom= 1.00D+00 WtEn= 0.00D+00
 Coeff-Com: -0.135D-02-0.732D-03 0.131D-01 0.318D-01 0.282D+00 0.675D+00
 Coeff:     -0.135D-02-0.732D-03 0.131D-01 0.318D-01 0.282D+00 0.675D+00
 Gap=     0.422 Goal=   None    Shift=    0.000
 RMSDP=3.96D-06 MaxDP=1.99D-04 DE=-2.02D-05 OVMax= 3.99D-04

 Initial convergence to 1.0D-05 achieved.  Increase integral accuracy.
 Cycle   7  Pass 1  IDiag  1:
 E= -308.195116408579     Delta-E=       -0.000009025441 Rises=F Damp=F
 DIIS: error= 3.09D-05 at cycle   1 NSaved=   1.
 NSaved= 1 IEnMin= 1 EnMin= -308.195116408579     IErMin= 1 ErrMin= 3.09D-05
 ErrMax= 3.09D-05  0.00D+00 EMaxC= 1.00D-01 BMatC= 3.56D-07 BMatP= 3.56D-07
 IDIUse=1 WtCom= 1.00D+00 WtEn= 0.00D+00
 Coeff-Com:  0.100D+01
 Coeff:      0.100D+01
 Gap=     0.422 Goal=   None    Shift=    0.000
 RMSDP=3.96D-06 MaxDP=1.99D-04 DE=-9.03D-06 OVMax= 2.45D-04

 Cycle   8  Pass 1  IDiag  1:
 RMSU=  4.03D-06    CP:  1.00D+00
 E= -308.195116580380     Delta-E=       -0.000000171801 Rises=F Damp=F
 DIIS: error= 2.10D-05 at cycle   2 NSaved=   2.
 NSaved= 2 IEnMin= 2 EnMin= -308.195116580380     IErMin= 2 ErrMin= 2.10D-05
 ErrMax= 2.10D-05  0.00D+00 EMaxC= 1.00D-01 BMatC= 1.68D-07 BMatP= 3.56D-07
 IDIUse=1 WtCom= 1.00D+00 WtEn= 0.00D+00
 Coeff-Com:  0.384D+00 0.616D+00
 Coeff:      0.384D+00 0.616D+00
 Gap=     0.422 Goal=   None    Shift=    0.000
 RMSDP=9.05D-07 MaxDP=3.98D-05 DE=-1.72D-07 OVMax= 1.04D-04

 Cycle   9  Pass 1  IDiag  1:
 RMSU=  9.02D-07    CP:  1.00D+00  9.83D-01
 E= -308.195116709037     Delta-E=       -0.000000128656 Rises=F Damp=F
 DIIS: error= 6.11D-06 at cycle   3 NSaved=   3.
 NSaved= 3 IEnMin= 3 EnMin= -308.195116709037     IErMin= 3 ErrMin= 6.11D-06
 ErrMax= 6.11D-06  0.00D+00 EMaxC= 1.00D-01 BMatC= 1.97D-08 BMatP= 1.68D-07
 IDIUse=1 WtCom= 1.00D+00 WtEn= 0.00D+00
 Coeff-Com: -0.323D-01 0.213D+00 0.819D+00
 Coeff:     -0.323D-01 0.213D+00 0.819D+00
 Gap=     0.422 Goal=   None    Shift=    0.000
 RMSDP=3.70D-07 MaxDP=1.67D-05 DE=-1.29D-07 OVMax= 5.33D-05

 Cycle  10  Pass 1  IDiag  1:
 RMSU=  3.21D-07    CP:  1.00D+00  1.03D+00  9.77D-01
 E= -308.195116727839     Delta-E=       -0.000000018802 Rises=F Damp=F
 DIIS: error= 1.94D-06 at cycle   4 NSaved=   4.
 NSaved= 4 IEnMin= 4 EnMin= -308.195116727839     IErMin= 4 ErrMin= 1.94D-06
 ErrMax= 1.94D-06  0.00D+00 EMaxC= 1.00D-01 BMatC= 2.21D-09 BMatP= 1.97D-08
 IDIUse=1 WtCom= 1.00D+00 WtEn= 0.00D+00
 Coeff-Com: -0.350D-01 0.433D-01 0.300D+00 0.692D+00
 Coeff:     -0.350D-01 0.433D-01 0.300D+00 0.692D+00
 Gap=     0.422 Goal=   None    Shift=    0.000
 RMSDP=1.45D-07 MaxDP=6.43D-06 DE=-1.88D-08 OVMax= 2.93D-05

 Cycle  11  Pass 1  IDiag  1:
 RMSU=  1.33D-07    CP:  1.00D+00  1.04D+00  1.02D+00  1.10D+00
 E= -308.195116730382     Delta-E=       -0.000000002543 Rises=F Damp=F
 DIIS: error= 1.08D-06 at cycle   5 NSaved=   5.
 NSaved= 5 IEnMin= 5 EnMin= -308.195116730382     IErMin= 5 ErrMin= 1.08D-06
 ErrMax= 1.08D-06  0.00D+00 EMaxC= 1.00D-01 BMatC= 7.82D-10 BMatP= 2.21D-09
 IDIUse=1 WtCom= 1.00D+00 WtEn= 0.00D+00
 Coeff-Com: -0.558D-02-0.540D-01-0.164D+00 0.322D+00 0.902D+00
 Coeff:     -0.558D-02-0.540D-01-0.164D+00 0.322D+00 0.902D+00
 Gap=     0.422 Goal=   None    Shift=    0.000
 RMSDP=1.07D-07 MaxDP=3.87D-06 DE=-2.54D-09 OVMax= 1.87D-05

 Cycle  12  Pass 1  IDiag  1:
 RMSU=  3.34D-08    CP:  1.00D+00  1.04D+00  1.07D+00  1.37D+00  1.02D+00
 E= -308.195116731350     Delta-E=       -0.000000000968 Rises=F Damp=F
 DIIS: error= 1.79D-07 at cycle   6 NSaved=   6.
 NSaved= 6 IEnMin= 6 EnMin= -308.195116731350     IErMin= 6 ErrMin= 1.79D-07
 ErrMax= 1.79D-07  0.00D+00 EMaxC= 1.00D-01 BMatC= 1.89D-11 BMatP= 7.82D-10
 IDIUse=1 WtCom= 1.00D+00 WtEn= 0.00D+00
 Coeff-Com:  0.160D-02-0.174D-01-0.664D-01 0.299D-01 0.222D+00 0.830D+00
 Coeff:      0.160D-02-0.174D-01-0.664D-01 0.299D-01 0.222D+00 0.830D+00
 Gap=     0.422 Goal=   None    Shift=    0.000
 RMSDP=1.80D-08 MaxDP=6.60D-07 DE=-9.68D-10 OVMax= 4.06D-06

 Cycle  13  Pass 1  IDiag  1:
 RMSU=  1.02D-08    CP:  1.00D+00  1.04D+00  1.07D+00  1.41D+00  1.08D+00
                    CP:  1.10D+00
 E= -308.195116731386     Delta-E=       -0.000000000036 Rises=F Damp=F
 DIIS: error= 6.07D-08 at cycle   7 NSaved=   7.
 NSaved= 7 IEnMin= 7 EnMin= -308.195116731386     IErMin= 7 ErrMin= 6.07D-08
 ErrMax= 6.07D-08  0.00D+00 EMaxC= 1.00D-01 BMatC= 1.43D-12 BMatP= 1.89D-11
 IDIUse=1 WtCom= 1.00D+00 WtEn= 0.00D+00
 Coeff-Com:  0.343D-03 0.280D-02 0.108D-01-0.228D-01-0.466D-01 0.124D-01
 Coeff-Com:  0.104D+01
 Coeff:      0.343D-03 0.280D-02 0.108D-01-0.228D-01-0.466D-01 0.124D-01
 Coeff:      0.104D+01
 Gap=     0.422 Goal=   None    Shift=    0.000
 RMSDP=5.89D-09 MaxDP=2.26D-07 DE=-3.64D-11 OVMax= 9.15D-07

 SCF Done:  E(RB2PLYPD3) =  -308.195116731     A.U. after   13 cycles
            NFock= 13  Conv=0.59D-08     -V/T= 2.0018
 KE= 3.076519452335D+02 PE=-1.267401589581D+03 EE= 3.788370975582D+02
 Leave Link  502 at Mon Sep 14 09:35:29 2020, MaxMem= 16106127360 cpu:             488.4 elap:              17.6
 (Enter /sw/contrib/gaussian/g16/B01/g16/l801.exe)
 DoSCS=T DFT=T ScalE2(SS,OS)=  0.270000  0.270000
 ExpMin= 1.03D-01 ExpMax= 1.53D+04 ExpMxC= 5.22D+02 IAcc=3 IRadAn=         5 AccDes= 0.00D+00
 HarFok:  IExCor=  205 AccDes= 0.00D+00 IRadAn=         5 IDoV=-2 UseB2=F ITyADJ=14
 ICtDFT= 12500011 ScaDFX=  1.000000  1.000000  1.000000  1.000000
 Largest valence mixing into a core orbital is  1.20D-04
 Largest core mixing into a valence orbital is  2.00D-05
 Range of M.O.s used for correlation:     7   320
 NBasis=   320 NAE=    25 NBE=    25 NFC=     6 NFV=     0
 NROrb=    314 NOA=    19 NOB=    19 NVA=   295 NVB=   295

 **** Warning!!: The largest alpha MO coefficient is  0.11893510D+02

 Leave Link  801 at Mon Sep 14 09:35:30 2020, MaxMem= 16106127360 cpu:               7.5 elap:               0.4
 (Enter /sw/contrib/gaussian/g16/B01/g16/l906.exe)
 DoSCS=T DFT=T ScalE2(SS,OS)=  0.270000  0.270000
 Frozen-core derivative calculation, NFC=   6 NFV=   0.
 FulOut=F Deriv=T AODrv=T NAtomX=    16
   MMem=          23  MDisk=          19 MDiskD=          19
  W3Min=     2880000 MinDsk=     4400780 NBas6D=         360
 NBas2D=       65694    NTT=       64980    LW2=     3500000
    MDV= 16104912489 MDiskM=      223651 NBas2p=       64623
 Fully direct method using O(ONN) memory.
 IMap=   1   2   3   4   5   6   7   8   9  10  11  12  13  14  15  16  17  18  19  20
 IMap=  21  22  23  24  25
 JobTyp=1 Pass  1:  I=   7 to  25 NPSUse= 28 ParTrn=T ParDer=T DoDerP=T.
 Spin components of T(2) and E(2):
     alpha-alpha T2 =       0.6270640658D-01 E2=     -0.4600707950D-01
     alpha-beta  T2 =       0.3769002555D+00 E2=     -0.2935712743D+00
     beta-beta   T2 =       0.6270640658D-01 E2=     -0.4600707950D-01
 The integrals were generated   1 times.
 E2(B2PLYPD3) =    -0.3855854333D+00 E(B2PLYPD3) =    -0.30858070216467D+03
 Leave Link  906 at Mon Sep 14 09:37:11 2020, MaxMem= 16106127360 cpu:            2832.2 elap:             101.4
 (Enter /sw/contrib/gaussian/g16/B01/g16/l1002.exe)
 Minotr:  Closed shell wavefunction.
          Computing MP2/KS-MP2 derivatives.
          Using Z-Vector for PSCF gradient.
          Skipping F1 and S1 gradient terms here.
          IDoAtm=1111111111111111
          Frozen-core window.
          Direct CPHF calculation.
          Differentiating once with respect to electric field.
                with respect to dipole field.
          Differentiating once with respect to nuclear coordinates.
          Requested convergence is 1.0D-10 RMS, and 1.0D-09 maximum.
          NewPWx=F KeepS1=T KeepF1=T KeepIn=T MapXYZ=F SortEE=F KeepMc=T.
 Keep R1 ints in memory in canonical form, NReq=1351365936.
 FoFCou: FMM=F IPFlag=           0 FMFlag=           0 FMFlg1=           0
         NFxFlg=           0 DoJE=F BraDBF=F KetDBF=F FulRan=T
         wScrn=  0.000000 ICntrl=       600 IOpCl=  0 I1Cent=           0 NGrid=           0
         NMat0=    1 NMatS0=  51360 NMatT0=    0 NMatD0=    1 NMtDS0=    0 NMtDT0=    0
 Symmetry not used in FoFCou.
 Two-electron integral symmetry not used.
          MDV=   16106127360 using IRadAn=       5.
          Solving linear equations separately, MaxMat=       0.
          There are     1 degrees of freedom in the 1st order CPHF.  IDoFFX=0 NUNeed=     1.
 LinEq1:  Iter=  0 NonCon=     1 RMS=1.16D-03 Max=1.93D-02 NDo=     1
 AX will form     1 AO Fock derivatives at one time.
 LinEq1:  Iter=  1 NonCon=     1 RMS=3.48D-04 Max=5.50D-03 NDo=     1
 LinEq1:  Iter=  2 NonCon=     1 RMS=1.04D-04 Max=2.13D-03 NDo=     1
 LinEq1:  Iter=  3 NonCon=     1 RMS=4.20D-05 Max=5.74D-04 NDo=     1
 LinEq1:  Iter=  4 NonCon=     1 RMS=1.88D-05 Max=5.09D-04 NDo=     1
 LinEq1:  Iter=  5 NonCon=     1 RMS=1.19D-05 Max=2.91D-04 NDo=     1
 LinEq1:  Iter=  6 NonCon=     1 RMS=4.93D-06 Max=1.47D-04 NDo=     1
 LinEq1:  Iter=  7 NonCon=     1 RMS=1.41D-06 Max=3.25D-05 NDo=     1
 LinEq1:  Iter=  8 NonCon=     1 RMS=5.20D-07 Max=8.22D-06 NDo=     1
 LinEq1:  Iter=  9 NonCon=     1 RMS=2.10D-07 Max=3.43D-06 NDo=     1
 LinEq1:  Iter= 10 NonCon=     1 RMS=6.15D-08 Max=1.02D-06 NDo=     1
 LinEq1:  Iter= 11 NonCon=     1 RMS=1.41D-08 Max=2.64D-07 NDo=     1
 LinEq1:  Iter= 12 NonCon=     1 RMS=3.43D-09 Max=9.15D-08 NDo=     1
 LinEq1:  Iter= 13 NonCon=     1 RMS=1.32D-09 Max=3.26D-08 NDo=     1
 LinEq1:  Iter= 14 NonCon=     1 RMS=4.81D-10 Max=8.27D-09 NDo=     1
 LinEq1:  Iter= 15 NonCon=     1 RMS=1.52D-10 Max=1.94D-09 NDo=     1
 LinEq1:  Iter= 16 NonCon=     0 RMS=2.68D-11 Max=4.43D-10 NDo=     1
 Linear equations converged to 1.000D-10 1.000D-09 after    16 iterations.
 End of Minotr F.D. properties file   721 does not exist.
 End of Minotr F.D. properties file   722 does not exist.
 End of Minotr F.D. properties file   788 does not exist.
 Leave Link 1002 at Mon Sep 14 09:38:10 2020, MaxMem= 16106127360 cpu:             531.1 elap:              58.5
 (Enter /sw/contrib/gaussian/g16/B01/g16/l601.exe)
 Copying SCF densities to generalized density rwf, IOpCl= 0 IROHF=0.

 **********************************************************************

            Population analysis using the MP2 Density.

 **********************************************************************

 Orbital symmetries:
       Occupied  (A) (A) (A) (A) (A) (A) (A) (A) (A) (A) (A) (A)
                 (A) (A) (A) (A) (A) (A) (A) (A) (A) (A) (A) (A)
                 (A)
       Virtual   (A) (A) (A) (A) (A) (A) (A) (A) (A) (A) (A) (A)
                 (A) (A) (A) (A) (A) (A) (A) (A) (A) (A) (A) (A)
                 (A) (A) (A) (A) (A) (A) (A) (A) (A) (A) (A) (A)
                 (A) (A) (A) (A) (A) (A) (A) (A) (A) (A) (A) (A)
                 (A) (A) (A) (A) (A) (A) (A) (A) (A) (A) (A) (A)
                 (A) (A) (A) (A) (A) (A) (A) (A) (A) (A) (A) (A)
                 (A) (A) (A) (A) (A) (A) (A) (A) (A) (A) (A) (A)
                 (A) (A) (A) (A) (A) (A) (A) (A) (A) (A) (A) (A)
                 (A) (A) (A) (A) (A) (A) (A) (A) (A) (A) (A) (A)
                 (A) (A) (A) (A) (A) (A) (A) (A) (A) (A) (A) (A)
                 (A) (A) (A) (A) (A) (A) (A) (A) (A) (A) (A) (A)
                 (A) (A) (A) (A) (A) (A) (A) (A) (A) (A) (A) (A)
                 (A) (A) (A) (A) (A) (A) (A) (A) (A) (A) (A) (A)
                 (A) (A) (A) (A) (A) (A) (A) (A) (A) (A) (A) (A)
                 (A) (A) (A) (A) (A) (A) (A) (A) (A) (A) (A) (A)
                 (A) (A) (A) (A) (A) (A) (A) (A) (A) (A) (A) (A)
                 (A) (A) (A) (A) (A) (A) (A) (A) (A) (A) (A) (A)
                 (A) (A) (A) (A) (A) (A) (A) (A) (A) (A) (A) (A)
                 (A) (A) (A) (A) (A) (A) (A) (A) (A) (A) (A) (A)
                 (A) (A) (A) (A) (A) (A) (A) (A) (A) (A) (A) (A)
                 (A) (A) (A) (A) (A) (A) (A) (A) (A) (A) (A) (A)
                 (A) (A) (A) (A) (A) (A) (A) (A) (A) (A) (A) (A)
                 (A) (A) (A) (A) (A) (A) (A) (A) (A) (A) (A) (A)
                 (A) (A) (A) (A) (A) (A) (A) (A) (A) (A) (A) (A)
                 (A) (A) (A) (A) (A) (A) (A)
 The electronic state is 1-A.
 Alpha  occ. eigenvalues --  -19.78444 -19.75254 -10.67941 -10.60706 -10.60525
 Alpha  occ. eigenvalues --  -10.59916  -1.30256  -1.09527  -0.90547  -0.80369
 Alpha  occ. eigenvalues --   -0.80053  -0.66357  -0.61808  -0.55944  -0.54227
 Alpha  occ. eigenvalues --   -0.51922  -0.48899  -0.46096  -0.46026  -0.44770
 Alpha  occ. eigenvalues --   -0.43518  -0.41980  -0.39921  -0.37846  -0.34651
 Alpha virt. eigenvalues --    0.07511   0.08621   0.12122   0.12555   0.14069
 Alpha virt. eigenvalues --    0.14469   0.15228   0.15556   0.19075   0.19279
 Alpha virt. eigenvalues --    0.19831   0.21114   0.23808   0.24799   0.25956
 Alpha virt. eigenvalues --    0.30757   0.31271   0.34396   0.37802   0.38381
 Alpha virt. eigenvalues --    0.41878   0.42636   0.45496   0.46631   0.48451
 Alpha virt. eigenvalues --    0.51401   0.51954   0.52245   0.52903   0.53682
 Alpha virt. eigenvalues --    0.54339   0.54912   0.55563   0.56312   0.56924
 Alpha virt. eigenvalues --    0.57811   0.60744   0.62880   0.63690   0.67728
 Alpha virt. eigenvalues --    0.70847   0.74166   0.75499   0.77634   0.79163
 Alpha virt. eigenvalues --    0.81854   0.83977   0.84791   0.86479   0.87911
 Alpha virt. eigenvalues --    0.90755   0.92247   0.96344   0.97289   0.99288
 Alpha virt. eigenvalues --    1.01632   1.03113   1.03533   1.03863   1.04530
 Alpha virt. eigenvalues --    1.05531   1.09392   1.11085   1.13899   1.15454
 Alpha virt. eigenvalues --    1.15927   1.17667   1.22823   1.23650   1.24554
 Alpha virt. eigenvalues --    1.28587   1.29131   1.30909   1.31718   1.31864
 Alpha virt. eigenvalues --    1.34866   1.36621   1.37973   1.38664   1.40553
 Alpha virt. eigenvalues --    1.40941   1.41221   1.45193   1.46796   1.47809
 Alpha virt. eigenvalues --    1.50606   1.54055   1.55508   1.60606   1.60985
 Alpha virt. eigenvalues --    1.62623   1.63410   1.66277   1.66618   1.67617
 Alpha virt. eigenvalues --    1.71755   1.73591   1.77119   1.82442   1.83877
 Alpha virt. eigenvalues --    1.85130   1.99293   2.00094   2.05033   2.11137
 Alpha virt. eigenvalues --    2.16576   2.23709   2.27825   2.34508   2.35332
 Alpha virt. eigenvalues --    2.41260   2.45558   2.47461   2.52310   2.56750
 Alpha virt. eigenvalues --    2.58931   2.59623   2.64347   2.66517   2.67010
 Alpha virt. eigenvalues --    2.69017   2.72382   2.72938   2.73133   2.80818
 Alpha virt. eigenvalues --    2.82479   2.85556   2.90649   2.90879   2.92576
 Alpha virt. eigenvalues --    2.93817   2.94238   2.95168   2.96596   2.97644
 Alpha virt. eigenvalues --    2.99597   3.02392   3.05709   3.09807   3.09917
 Alpha virt. eigenvalues --    3.13954   3.14206   3.14906   3.18319   3.18341
 Alpha virt. eigenvalues --    3.19453   3.22144   3.24995   3.27558   3.27864
 Alpha virt. eigenvalues --    3.28321   3.29086   3.33206   3.34328   3.36441
 Alpha virt. eigenvalues --    3.38368   3.41049   3.41577   3.43249   3.44224
 Alpha virt. eigenvalues --    3.47497   3.51268   3.52209   3.54446   3.54916
 Alpha virt. eigenvalues --    3.57579   3.58524   3.58869   3.59113   3.59376
 Alpha virt. eigenvalues --    3.61277   3.63472   3.66747   3.68590   3.71016
 Alpha virt. eigenvalues --    3.73307   3.75532   3.79866   3.81534   3.82256
 Alpha virt. eigenvalues --    3.83324   3.84732   3.85402   3.87180   3.90113
 Alpha virt. eigenvalues --    3.92664   3.94751   3.96977   3.98092   4.00994
 Alpha virt. eigenvalues --    4.03170   4.06955   4.08375   4.10681   4.12597
 Alpha virt. eigenvalues --    4.13509   4.17133   4.17401   4.18805   4.21161
 Alpha virt. eigenvalues --    4.23222   4.25600   4.25964   4.28203   4.29844
 Alpha virt. eigenvalues --    4.32164   4.32589   4.33150   4.34613   4.35659
 Alpha virt. eigenvalues --    4.41280   4.41974   4.44742   4.45347   4.46410
 Alpha virt. eigenvalues --    4.46839   4.49982   4.51515   4.55474   4.57786
 Alpha virt. eigenvalues --    4.59842   4.61151   4.67101   4.69679   4.73351
 Alpha virt. eigenvalues --    4.75009   4.82440   4.91239   4.93623   4.93933
 Alpha virt. eigenvalues --    4.95449   4.97471   4.97946   4.99861   5.04564
 Alpha virt. eigenvalues --    5.06351   5.09653   5.17721   5.22699   5.24561
 Alpha virt. eigenvalues --    5.27192   5.29007   5.30912   5.31341   5.33492
 Alpha virt. eigenvalues --    5.34445   5.35482   5.38862   5.39887   5.43092
 Alpha virt. eigenvalues --    5.46122   5.46808   5.49118   5.49596   5.50829
 Alpha virt. eigenvalues --    5.54017   5.54598   5.58889   5.60664   5.62879
 Alpha virt. eigenvalues --    5.66559   5.68701   5.76986   5.85058   5.93640
 Alpha virt. eigenvalues --    6.00448   6.03590   6.04791   6.05637   6.08540
 Alpha virt. eigenvalues --    6.12191   6.15133   6.19623   6.26820   6.31255
 Alpha virt. eigenvalues --    6.51272   6.54656   6.70606   6.84540   6.97987
 Alpha virt. eigenvalues --    6.98864   7.17067   7.33299   7.40970   7.75948
 Alpha virt. eigenvalues --    7.95606   8.00368   8.02748   8.14819  10.10615
 Alpha virt. eigenvalues --   11.22007  13.94944  14.02137  14.06575  14.46318
          Condensed to atoms (all electrons):
               1          2          3          4          5          6
     1  C    4.815796   0.295173  -0.038433  -0.032027   0.312432  -0.051101
     2  C    0.295173   5.085064   0.397377   0.383568  -0.058398   0.003656
     3  H   -0.038433   0.397377   0.573829  -0.031307  -0.007158   0.016281
     4  H   -0.032027   0.383568  -0.031307   0.585239   0.005476  -0.001909
     5  O    0.312432  -0.058398  -0.007158   0.005476   7.974474   0.064688
     6  O   -0.051101   0.003656   0.016281  -0.001909   0.064688   7.699520
     7  H    0.001414   0.002220  -0.001204   0.000830   0.001230   0.379266
     8  C    0.326438  -0.050442   0.007948  -0.006574  -0.038671   0.004763
     9  H   -0.030614   0.009237  -0.000403  -0.000358   0.002965  -0.000144
    10  H   -0.028421  -0.010069  -0.000231   0.004538   0.001547  -0.000270
    11  H   -0.039171  -0.000139  -0.000028   0.000168   0.003097  -0.000306
    12  C    0.333867  -0.079769  -0.007012   0.009437  -0.056012  -0.011757
    13  H   -0.032122   0.008690   0.000003  -0.000585   0.004651  -0.000804
    14  H   -0.029928   0.000904   0.000620  -0.000411   0.004751   0.000265
    15  H   -0.029822  -0.005817   0.002767   0.000019  -0.006931   0.013536
    16  H   -0.028330   0.378868  -0.027305  -0.024497   0.004563   0.000797
               7          8          9         10         11         12
     1  C    0.001414   0.326438  -0.030614  -0.028421  -0.039171   0.333867
     2  C    0.002220  -0.050442   0.009237  -0.010069  -0.000139  -0.079769
     3  H   -0.001204   0.007948  -0.000403  -0.000231  -0.000028  -0.007012
     4  H    0.000830  -0.006574  -0.000358   0.004538   0.000168   0.009437
     5  O    0.001230  -0.038671   0.002965   0.001547   0.003097  -0.056012
     6  O    0.379266   0.004763  -0.000144  -0.000270  -0.000306  -0.011757
     7  H    0.507552  -0.000595  -0.000029   0.000122   0.000075   0.001233
     8  C   -0.000595   4.970559   0.394017   0.392678   0.387752  -0.055849
     9  H   -0.000029   0.394017   0.570467  -0.027257  -0.027971  -0.009227
    10  H    0.000122   0.392678  -0.027257   0.577586  -0.029149   0.009188
    11  H    0.000075   0.387752  -0.027971  -0.029149   0.604157  -0.000345
    12  C    0.001233  -0.055849  -0.009227   0.009188  -0.000345   5.034995
    13  H   -0.000035  -0.004879   0.004325  -0.000273   0.000139   0.385521
    14  H   -0.000115  -0.005376   0.000747  -0.000349   0.000646   0.379066
    15  H   -0.001133   0.007146  -0.000208  -0.000400   0.000030   0.396331
    16  H   -0.000033  -0.005299  -0.000359   0.000682   0.000169   0.001273
              13         14         15         16
     1  C   -0.032122  -0.029928  -0.029822  -0.028330
     2  C    0.008690   0.000904  -0.005817   0.378868
     3  H    0.000003   0.000620   0.002767  -0.027305
     4  H   -0.000585  -0.000411   0.000019  -0.024497
     5  O    0.004651   0.004751  -0.006931   0.004563
     6  O   -0.000804   0.000265   0.013536   0.000797
     7  H   -0.000035  -0.000115  -0.001133  -0.000033
     8  C   -0.004879  -0.005376   0.007146  -0.005299
     9  H    0.004325   0.000747  -0.000208  -0.000359
    10  H   -0.000273  -0.000349  -0.000400   0.000682
    11  H    0.000139   0.000646   0.000030   0.000169
    12  C    0.385521   0.379066   0.396331   0.001273
    13  H    0.579328  -0.027143  -0.024753  -0.000332
    14  H   -0.027143   0.612792  -0.031448  -0.001352
    15  H   -0.024753  -0.031448   0.559630   0.000596
    16  H   -0.000332  -0.001352   0.000596   0.594216
 Mulliken charges:
               1
     1  C    0.254848
     2  C   -0.360123
     3  H    0.114258
     4  H    0.108393
     5  O   -0.212705
     6  O   -0.116481
     7  H    0.109199
     8  C   -0.323616
     9  H    0.114811
    10  H    0.110078
    11  H    0.100876
    12  C   -0.330940
    13  H    0.108270
    14  H    0.096331
    15  H    0.120458
    16  H    0.106342
 Sum of Mulliken charges =  -0.00000
 Mulliken charges with hydrogens summed into heavy atoms:
               1
     1  C    0.254848
     2  C   -0.031130
     5  O   -0.212705
     6  O   -0.007282
     8  C    0.002150
    12  C   -0.005881
 Electronic spatial extent (au):  <R**2>=            602.3630
 Charge=              0.0000 electrons
 Dipole moment (field-independent basis, Debye):
    X=              0.9951    Y=             -1.1229    Z=              0.8301  Tot=              1.7147
 Quadrupole moment (field-independent basis, Debye-Ang):
   XX=            -36.9711   YY=            -37.8066   ZZ=            -39.6190
   XY=              3.0424   XZ=             -0.5613   YZ=              0.3344
 Traceless Quadrupole moment (field-independent basis, Debye-Ang):
   XX=              1.1611   YY=              0.3256   ZZ=             -1.4868
   XY=              3.0424   XZ=             -0.5613   YZ=              0.3344
 Octapole moment (field-independent basis, Debye-Ang**2):
  XXX=            -17.5720  YYY=             -0.8171  ZZZ=             -3.2386  XYY=             -6.0263
  XXY=             -7.6814  XXZ=             -0.5095  XZZ=             -2.8226  YZZ=              0.0277
  YYZ=             -3.4982  XYZ=             -1.0519
 Hexadecapole moment (field-independent basis, Debye-Ang**3):
 XXXX=           -332.9828 YYYY=           -221.4659 ZZZZ=           -211.5370 XXXY=             19.4891
 XXXZ=             10.2383 YYYX=              2.3641 YYYZ=              0.7229 ZZZX=              2.4762
 ZZZY=              0.1290 XXYY=            -93.8912 XXZZ=            -91.7824 YYZZ=            -71.9775
 XXYZ=              2.1961 YYXZ=              0.0465 ZZXY=              0.7352
 N-N= 2.727174300578D+02 E-N=-1.267625496379D+03  KE= 3.081677305126D+02
 No NMR shielding tensors so no spin-rotation constants.
 Leave Link  601 at Mon Sep 14 09:38:11 2020, MaxMem= 16106127360 cpu:               6.8 elap:               0.4
 (Enter /sw/contrib/gaussian/g16/B01/g16/l701.exe)
 ... and contract with generalized density number  2.
 Compute integral first derivatives.
 R6Disp: Adding Grimme-D3(BJ) dispersion energy 1st derivatives to the gradient.
 Leave Link  701 at Mon Sep 14 09:38:12 2020, MaxMem= 16106127360 cpu:              11.3 elap:               0.5
 (Enter /sw/contrib/gaussian/g16/B01/g16/l702.exe)
 L702 exits ... SP integral derivatives will be done elsewhere.
 Leave Link  702 at Mon Sep 14 09:38:12 2020, MaxMem= 16106127360 cpu:               2.2 elap:               0.2
 (Enter /sw/contrib/gaussian/g16/B01/g16/l703.exe)
 Integral derivatives from FoFJK, PRISM(SPDF).
 Compute integral first derivatives, UseDBF=F ICtDFT=           0.
 Calling FoFJK, ICntrl=  10002127 FMM=F ISym2X=0 I1Cent= 0 IOpClX= 0 NMat=1 NMatS=1 NMatT=0.
 FoFJK:  IHMeth= 1 ICntrl=10002127 DoSepK=F KAlg= 0 I1Cent=           0 FoldK=F
 IRaf=         0 NMat=       1 IRICut=       1 DoRegI=T DoRafI=F ISym2E= 0 IDoP0=0 IntGTp=1.
 FoFCou: FMM=F IPFlag=           0 FMFlag=      100000 FMFlg1=         800
         NFxFlg=           0 DoJE=F BraDBF=F KetDBF=F FulRan=T
         wScrn=  0.000000 ICntrl=  10002127 IOpCl=  0 I1Cent=           0 NGrid=           0
         NMat0=    1 NMatS0=      1 NMatT0=    0 NMatD0=    1 NMtDS0=    0 NMtDT0=    0
 Symmetry not used in FoFCou.
 Leave Link  703 at Mon Sep 14 09:38:20 2020, MaxMem= 16106127360 cpu:             218.1 elap:               7.9
 (Enter /sw/contrib/gaussian/g16/B01/g16/l716.exe)
 Dipole        = 3.91520507D-01-4.41768877D-01 3.26591955D-01
 ***** Axes restored to original set *****
 -------------------------------------------------------------------
 Center     Atomic                   Forces (Hartrees/Bohr)
 Number     Number              X              Y              Z
 -------------------------------------------------------------------
      1        6          -0.000296367   -0.001417529    0.000476736
      2        6          -0.000157340    0.000272619   -0.000097640
      3        1           0.000070181   -0.000017095    0.000087130
      4        1           0.000122285   -0.000060208   -0.000035798
      5        8           0.004892604    0.001087962    0.001546351
      6        8           0.030379803   -0.451051677   -0.376129479
      7        1          -0.035114205    0.450547667    0.374465635
      8        6           0.000018179    0.000349790   -0.000143862
      9        1          -0.000032070   -0.000026854    0.000002162
     10        1          -0.000050986   -0.000014437   -0.000006419
     11        1           0.000131644    0.000075051    0.000039239
     12        6           0.000087250    0.000162817   -0.000110529
     13        1           0.000050279   -0.000021146    0.000018182
     14        1          -0.000092932    0.000122114   -0.000005880
     15        1          -0.000104112    0.000031412   -0.000048905
     16        1           0.000095788   -0.000040485   -0.000056924
 -------------------------------------------------------------------
 Cartesian Forces:  Max     0.451051677 RMS     0.119924013
 -----------------------------------------------------------------------------------------------
                       Internal Coordinate Forces (Hartree/Bohr or radian)
  Cent   Atom   N1       Length/X         N2         Alpha/Y        N3         Beta/Z          J
 -----------------------------------------------------------------------------------------------
      1  C 
      2  C        1  -0.000103(     1)
      3  H        2   0.000096(     2)      1   0.000116(    16)
      4  H        2  -0.000120(     3)      1   0.000013(    17)      3  -0.000143(    30)     0
      5  O        1   0.000600(     4)      2  -0.000429(    18)      3  -0.000173(    31)     0
      6  O        5  -0.005033(     5)      1   0.000464(    19)      2  -0.000110(    32)     0
      7  H        6   0.586898(     6)      5  -0.001447(    20)      1  -0.000548(    33)     0
      8  C        1  -0.000008(     7)      5  -0.000827(    21)      6  -0.000172(    34)     0
      9  H        8  -0.000004(     8)      1   0.000065(    22)      5   0.000053(    35)     0
     10  H        8   0.000011(     9)      1   0.000100(    23)      5  -0.000037(    36)     0
     11  H        8  -0.000117(    10)      1  -0.000207(    24)      5   0.000053(    37)     0
     12  C        1  -0.000206(    11)      5  -0.000393(    25)      6  -0.000290(    38)     0
     13  H       12  -0.000019(    12)      1   0.000091(    26)      5   0.000060(    39)     0
     14  H       12  -0.000067(    13)      1  -0.000256(    27)      5   0.000116(    40)     0
     15  H       12  -0.000114(    14)      1  -0.000041(    28)      5  -0.000057(    41)     0
     16  H        2  -0.000031(    15)      1  -0.000101(    29)      5   0.000199(    42)     0
 -----------------------------------------------------------------------------------------------
 Internal  Forces:  Max     0.586898150 RMS     0.090564272
 Leave Link  716 at Mon Sep 14 09:38:21 2020, MaxMem= 16106127360 cpu:               2.6 elap:               0.2
 (Enter /sw/contrib/gaussian/g16/B01/g16/l103.exe)

 GradGradGradGradGradGradGradGradGradGradGradGradGradGradGradGradGradGrad
 Berny optimization.
 Search for a local minimum.
 Step number   1 out of a maximum of   52 on scan point     1 out of    56
 All quantities printed in internal units (Hartrees-Bohrs-Radians)
 Second derivative matrix not updated -- first step.
 ITU=  0
     Eigenvalues --- 1000.000001000.000001000.000001000.000001000.00000
     Eigenvalues --- 1000.000001000.000001000.000001000.000001000.00000
     Eigenvalues --- 1000.000001000.000001000.000001000.000001000.00000
     Eigenvalues --- 1000.000001000.000001000.000001000.000001000.00000
     Eigenvalues --- 1000.000001000.000001000.000001000.000001000.00000
     Eigenvalues --- 1000.000001000.000001000.000001000.000001000.00000
     Eigenvalues --- 1000.000001000.000001000.000001000.000001000.00000
     Eigenvalues --- 1000.000001000.000001000.000001000.000001000.00000
     Eigenvalues --- 1000.000001000.00000
 RFO step:  Lambda= 0.00000000D+00 EMin= 1.00000000D+03
 Linear search not attempted -- first point.
 Variable       Old X    -DE/DX   Delta X   Delta X   Delta X     New X
                                 (Linear)    (Quad)   (Total)
    B1        2.87869  -0.00010   0.00000   0.00000   0.00000   2.87869
    B2        2.05500   0.00010   0.00000   0.00000   0.00000   2.05500
    B3        2.05882  -0.00012   0.00000   0.00000   0.00000   2.05882
    B4        2.73160   0.00060   0.00000   0.00000   0.00000   2.73160
    B5        2.75050  -0.00503   0.00000   0.00000   0.00000   2.75050
    B6        1.36957   0.58690   0.00000   0.00000   0.00000   1.36957
    B7        2.87862  -0.00001   0.00000   0.00000   0.00000   2.87862
    B8        2.05612  -0.00000   0.00000   0.00000   0.00000   2.05612
    B9        2.05680   0.00001   0.00000   0.00000   0.00000   2.05680
   B10        2.05715  -0.00012   0.00000   0.00000   0.00000   2.05715
   B11        2.87756  -0.00021   0.00000   0.00000   0.00000   2.87756
   B12        2.05692  -0.00002   0.00000   0.00000   0.00000   2.05692
   B13        2.05872  -0.00007   0.00000   0.00000   0.00000   2.05872
   B14        2.05381  -0.00011   0.00000   0.00000   0.00000   2.05381
   B15        2.05811  -0.00003   0.00000   0.00000   0.00000   2.05811
    A1        1.93271   0.00012   0.00000   0.00000   0.00000   1.93271
    A2        1.92600   0.00001   0.00000   0.00000   0.00000   1.92600
    A3        1.92808  -0.00043   0.00000   0.00000   0.00000   1.92808
    A4        1.90112   0.00046   0.00000   0.00000   0.00000   1.90112
    A5        1.74187  -0.00145   0.00000   0.00000   0.00000   1.74187
    A6        1.77492  -0.00083   0.00000   0.00000   0.00000   1.77492
    A7        1.92790   0.00006   0.00000   0.00000   0.00000   1.92790
    A8        1.93223   0.00010   0.00000   0.00000   0.00000   1.93223
    A9        1.91314  -0.00021   0.00000   0.00000   0.00000   1.91314
   A10        1.92059  -0.00039   0.00000   0.00000   0.00000   1.92059
   A11        1.92306   0.00009   0.00000   0.00000   0.00000   1.92306
   A12        1.92301  -0.00026   0.00000   0.00000   0.00000   1.92301
   A13        1.92958  -0.00004   0.00000   0.00000   0.00000   1.92958
   A14        1.92371  -0.00010   0.00000   0.00000   0.00000   1.92371
    D1        2.10789  -0.00014   0.00000   0.00000   0.00000   2.10789
    D2       -1.14212  -0.00017   0.00000   0.00000   0.00000  -1.14212
    D3        1.10742  -0.00011   0.00000   0.00000   0.00000   1.10742
    D4       -1.95840  -0.00055   0.00000   0.00000   0.00000  -1.95840
    D5       -3.11421  -0.00017   0.00000   0.00000   0.00000  -3.11421
    D6        1.03603   0.00005   0.00000   0.00000   0.00000   1.03603
    D7       -1.06687  -0.00004   0.00000   0.00000   0.00000  -1.06687
    D8        3.12509   0.00005   0.00000   0.00000   0.00000   3.12509
    D9       -1.05388  -0.00029   0.00000   0.00000   0.00000  -1.05388
   D10       -0.98555   0.00006   0.00000   0.00000   0.00000  -0.98555
   D11       -3.07834   0.00012   0.00000   0.00000   0.00000  -3.07834
   D12        1.11013  -0.00006   0.00000   0.00000   0.00000   1.11013
   D13        3.05359   0.00020   0.00000   0.00000   0.00000   3.05359
         Item               Value     Threshold  Converged?
 Maximum Force            0.000000     0.000450     YES
 RMS     Force            0.000000     0.000300     YES
 Maximum Displacement     0.000000     0.001800     YES
 RMS     Displacement     0.000000     0.001200     YES
 Predicted change in Energy=-0.000000D+00
 Optimization completed.
    -- Stationary point found.
                       ----------------------------
                       !   Optimized Parameters   !
                       ! (Angstroms and Degrees)  !
 ----------------------                            ----------------------
 !      Name          Value   Derivative information (Atomic Units)     !
 ------------------------------------------------------------------------
 !       B1          1.5233   -DE/DX =   -0.0001                        !
 !       B2          1.0875   -DE/DX =    0.0001                        !
 !       B3          1.0895   -DE/DX =   -0.0001                        !
 !       B4          1.4455   -DE/DX =    0.0006                        !
 !       B5          1.4555   -DE/DX =   -0.005                         !
 !       B6          0.7247   -DE/DX =    0.5869                        !
 !       B7          1.5233   -DE/DX =    0.0                           !
 !       B8          1.0881   -DE/DX =    0.0                           !
 !       B9          1.0884   -DE/DX =    0.0                           !
 !       B10         1.0886   -DE/DX =   -0.0001                        !
 !       B11         1.5227   -DE/DX =   -0.0002                        !
 !       B12         1.0885   -DE/DX =    0.0                           !
 !       B13         1.0894   -DE/DX =   -0.0001                        !
 !       B14         1.0868   -DE/DX =   -0.0001                        !
 !       B15         1.0891   -DE/DX =    0.0                           !
 !       A1        110.7361   -DE/DX =    0.0001                        !
 !       A2        110.3517   -DE/DX =    0.0                           !
 !       A3        110.4711   -DE/DX =   -0.0004                        !
 !       A4        108.926    -DE/DX =    0.0005                        !
 !       A5         99.8016   -DE/DX =   -0.0014                        !
 !       A6        101.6954   -DE/DX =   -0.0008                        !
 !       A7        110.4605   -DE/DX =    0.0001                        !
 !       A8        110.7087   -DE/DX =    0.0001                        !
 !       A9        109.6147   -DE/DX =   -0.0002                        !
 !       A10       110.0419   -DE/DX =   -0.0004                        !
 !       A11       110.1834   -DE/DX =    0.0001                        !
 !       A12       110.1805   -DE/DX =   -0.0003                        !
 !       A13       110.5568   -DE/DX =    0.0                           !
 !       A14       110.2206   -DE/DX =   -0.0001                        !
 !       D1        120.7734   -DE/DX =   -0.0001                        !
 !       D2        -65.4387   -DE/DX =   -0.0002                        !
 !       D3         63.4507   -DE/DX =   -0.0001                        !
 !       D4       -112.2082   -DE/DX =   -0.0005                        !
 !       D5       -178.4313   -DE/DX =   -0.0002                        !
 !       D6         59.3599   -DE/DX =    0.0001                        !
 !       D7        -61.1272   -DE/DX =    0.0                           !
 !       D8        179.0547   -DE/DX =    0.0001                        !
 !       D9        -60.383    -DE/DX =   -0.0003                        !
 !       D10       -56.4676   -DE/DX =    0.0001                        !
 !       D11      -176.3762   -DE/DX =    0.0001                        !
 !       D12        63.6057   -DE/DX =   -0.0001                        !
 !       D13       174.9579   -DE/DX =    0.0002                        !
 ------------------------------------------------------------------------
 Lowest energy point so far.  Saving SCF results.
 GradGradGradGradGradGradGradGradGradGradGradGradGradGradGradGradGradGrad

 Leave Link  103 at Mon Sep 14 09:38:21 2020, MaxMem= 16106127360 cpu:               6.4 elap:               0.3
 (Enter /sw/contrib/gaussian/g16/B01/g16/l202.exe)
 ---------------------------------------------------------------------------------------------------
                            Z-MATRIX (ANGSTROMS AND DEGREES)
   CD    Cent   Atom    N1       Length/X        N2       Alpha/Y        N3        Beta/Z          J
 ---------------------------------------------------------------------------------------------------
      1      1  C 
      2      2  C        1   1.523337(     1)
      3      3  H        2   1.087457(     2)      1  110.736(    16)
      4      4  H        2   1.089482(     3)      1  110.352(    17)      3  120.773(    30)      0
      5      5  O        1   1.445503(     4)      2  110.471(    18)      3  -65.439(    31)      0
      6      6  O        5   1.455503(     5)      1  108.926(    19)      2   63.451(    32)      0
      7      7  H        6   0.744747(     6)      5   99.802(    20)      1 -112.208(    33)      0
      8      8  C        1   1.523301(     7)      5  101.695(    21)      6 -178.431(    34)      0
      9      9  H        8   1.088054(     8)      1  110.460(    22)      5   59.360(    35)      0
     10     10  H        8   1.088412(     9)      1  110.709(    23)      5  -61.127(    36)      0
     11     11  H        8   1.088599(    10)      1  109.615(    24)      5  179.055(    37)      0
     12     12  C        1   1.522740(    11)      5  110.042(    25)      6  -60.383(    38)      0
     13     13  H       12   1.088473(    12)      1  110.183(    26)      5  -56.468(    39)      0
     14     14  H       12   1.089428(    13)      1  110.180(    27)      5 -176.376(    40)      0
     15     15  H       12   1.086831(    14)      1  110.557(    28)      5   63.606(    41)      0
     16     16  H        2   1.089104(    15)      1  110.221(    29)      5  174.958(    42)      0
 ---------------------------------------------------------------------------------------------------
                         Z-Matrix orientation:                         
 ---------------------------------------------------------------------
 Center     Atomic      Atomic             Coordinates (Angstroms)
 Number     Number       Type             X           Y           Z
 ---------------------------------------------------------------------
      1          6           0        0.000000    0.000000    0.000000
      2          6           0        0.000000    0.000000    1.523337
      3          1           0        1.017013    0.000000    1.908366
      4          1           0       -0.522630    0.877646    1.902238
      5          8           0        0.562903    1.231683   -0.505543
      6          8           0        1.956393    1.317742   -0.094120
      7          1           0        1.913058    1.889041    0.381682
      8          6           0       -1.419029    0.060132   -0.550622
      9          1           0       -1.403412    0.113576   -1.637251
     10          1           0       -1.944710    0.931877   -0.165447
     11          1           0       -1.964386   -0.834031   -0.253794
     12          6           0        0.761751   -1.191946   -0.563683
     13          1           0        0.752456   -1.163113   -1.651735
     14          1           0        0.299975   -2.122447   -0.235381
     15          1           0        1.794420   -1.179646   -0.225091
     16          1           0       -0.504853   -0.888577    1.899771
 ---------------------------------------------------------------------
                    Distance matrix (angstroms):
                    1          2          3          4          5
     1  C    0.000000
     2  C    1.523337   0.000000
     3  H    2.162447   1.087457   0.000000
     4  H    2.159147   1.089482   1.772231   0.000000
     5  O    1.445503   2.439315   2.747766   2.664796   0.000000
     6  O    2.360673   2.860085   2.574651   3.213205   1.455503
     7  H    2.715501   2.920897   2.588848   3.044271   1.744192
     8  C    1.523301   2.513676   3.461870   2.736491   2.302742
     9  H    2.159411   3.460026   4.294503   3.726602   2.529293
    10  H    2.162791   2.739030   3.733751   2.510094   2.548269
    11  H    2.149146   2.777159   3.776147   3.107567   3.273797
    12  C    1.522740   2.521240   2.756252   3.466066   2.432467
    13  H    2.155748   3.464116   3.754616   4.292000   2.661716
    14  H    2.156426   2.772698   3.100738   3.774474   3.375250
    15  H    2.159207   2.769207   2.558821   3.758551   2.722094
    16  H    2.157215   1.089104   1.762305   1.766314   3.379518
                    6          7          8          9         10
     6  O    0.000000
     7  H    0.744747   0.000000
     8  C    3.630903   3.913681   0.000000
     9  H    3.888388   4.269348   1.088054   0.000000
    10  H    3.920789   4.012217   1.088412   1.768850   0.000000
    11  H    4.475280   4.780535   1.088599   1.768221   1.768227
    12  C    2.818899   3.422236   2.514691   2.746792   3.463257
    13  H    3.167060   3.846742   2.724725   2.505576   3.724613
    14  H    3.820809   4.367475   2.796069   3.141109   3.791095
    15  H    2.506060   3.130350   3.459664   3.727298   4.294553
    16  H    3.860204   3.983220   2.782120   3.784474   3.106826
                   11         12         13         14         15
    11  H    0.000000
    12  C    2.766940   0.000000
    13  H    3.073070   1.088473   0.000000
    14  H    2.605318   1.089428   1.769497   0.000000
    15  H    3.774770   1.086831   1.766713   1.767016   0.000000
    16  H    2.602125   2.786561   3.777484   2.594042   3.144267
                   16
    16  H    0.000000
 Stoichiometry    C4H10O2
 Framework group  C1[X(C4H10O2)]
 Deg. of freedom    42
 Full point group                 C1      NOp   1
 RotChk:  IX=0 Diff= 6.82D-03
 Largest Abelian subgroup         C1      NOp   1
 Largest concise Abelian subgroup C1      NOp   1
                         Standard orientation:                         
 ---------------------------------------------------------------------
 Center     Atomic      Atomic             Coordinates (Angstroms)
 Number     Number       Type             X           Y           Z
 ---------------------------------------------------------------------
      1          6           0        0.383773    0.000083    0.034103
      2          6           0        0.335137   -1.209091    0.959353
      3          1           0       -0.542707   -1.168695    1.599916
      4          1           0        0.307882   -2.130140    0.378063
      5          8           0       -0.724655   -0.028082   -0.893298
      6          8           0       -1.968852    0.076065   -0.145224
      7          1           0       -2.246566   -0.604381   -0.265707
      8          6           0        1.577535   -0.075966   -0.909079
      9          1           0        1.570928    0.764933   -1.599520
     10          1           0        1.555768   -1.000058   -1.483728
     11          1           0        2.500806   -0.046324   -0.333111
     12          6           0        0.378136    1.307619    0.814523
     13          1           0        0.405674    2.153579    0.130150
     14          1           0        1.248313    1.359034    1.467976
     15          1           0       -0.517996    1.384000    1.424699
     16          1           0        1.218468   -1.231673    1.596036
 ---------------------------------------------------------------------
 Rotational constants (GHZ):           4.4929104           2.7888425           2.7852113
 Leave Link  202 at Mon Sep 14 09:38:21 2020, MaxMem= 16106127360 cpu:               0.6 elap:               0.0
 (Enter /sw/contrib/gaussian/g16/B01/g16/l301.exe)
 Standard basis: CC-pVTZ (5D, 7F)
 Ernie: Thresh=  0.10000D-02 Tol=  0.10000D-05 Strict=F.
 Ernie:  18 primitive shells out of 236 were deleted.
 There are   360 symmetry adapted cartesian basis functions of A   symmetry.
 There are   320 symmetry adapted basis functions of A   symmetry.
   320 basis functions,   482 primitive gaussians,   360 cartesian basis functions
    25 alpha electrons       25 beta electrons
       nuclear repulsion energy       272.5377059197 Hartrees.
 IExCor=  419 DFT=T Ex+Corr=B2PLYPD3 ExCW=0 ScaHFX=  0.530000
 ScaDFX=  0.470000  0.470000  0.730000  0.730000 ScalE2=  0.270000  0.270000
 IRadAn=      5 IRanWt=     -1 IRanGd=            0 ICorTp=0 IEmpDi=141
 NAtoms=   16 NActive=   16 NUniq=   16 SFac= 1.00D+00 NAtFMM=   60 NAOKFM=F Big=F
 Integral buffers will be    131072 words long.
 Regular integral format.
 Two-electron integral symmetry is turned on.
 R6Disp:  Grimme-D3(BJ) Dispersion energy=       -0.0090642065 Hartrees.
 Nuclear repulsion after empirical dispersion term =      272.5286417131 Hartrees.
 Leave Link  301 at Mon Sep 14 09:38:21 2020, MaxMem= 16106127360 cpu:               1.7 elap:               0.1
 (Enter /sw/contrib/gaussian/g16/B01/g16/l302.exe)
 NPDir=0 NMtPBC=     1 NCelOv=     1 NCel=       1 NClECP=     1 NCelD=      1
         NCelK=      1 NCelE2=     1 NClLst=     1 CellRange=     0.0.
 One-electron integrals computed using PRISM.
 One-electron integral symmetry used in STVInt
 NBasis=   320 RedAO= T EigKep=  5.30D-04  NBF=   320
 NBsUse=   320 1.00D-06 EigRej= -1.00D+00 NBFU=   320
 Precomputing XC quadrature grid using
 IXCGrd= 4 IRadAn=           5 IRanWt=          -1 IRanGd=           0 AccXCQ= 0.00D+00.
 Generated NRdTot=       0 NPtTot=           0 NUsed=           0 NTot=          32
 NSgBfM=   360   360   360   360   360 MxSgAt=    16 MxSgA2=    16.
 Leave Link  302 at Mon Sep 14 09:38:22 2020, MaxMem= 16106127360 cpu:               7.4 elap:               0.3
 (Enter /sw/contrib/gaussian/g16/B01/g16/l303.exe)
 DipDrv:  MaxL=1.
 Leave Link  303 at Mon Sep 14 09:38:22 2020, MaxMem= 16106127360 cpu:               1.7 elap:               0.1
 (Enter /sw/contrib/gaussian/g16/B01/g16/l401.exe)
 Initial guess from the checkpoint file:  "/gscratch/ilahie/abmccoy/milester/tbhp/tbhp_eq.chk"
 B after Tr=     0.000000   -0.000000    0.000000
         Rot=    0.999997    0.002341   -0.000101    0.000469 Ang=   0.27 deg.
 Guess basis will be translated and rotated to current coordinates.
 JPrj=2 DoOrth=T DoCkMO=T.
 Generating alternative initial guess.
 ExpMin= 1.03D-01 ExpMax= 1.53D+04 ExpMxC= 5.22D+02 IAcc=3 IRadAn=         5 AccDes= 0.00D+00
 Harris functional with IExCor=  419 and IRadAn=       5 diagonalized for initial guess.
 HarFok:  IExCor=  419 AccDes= 0.00D+00 IRadAn=         5 IDoV= 1 UseB2=F ITyADJ=14
 ICtDFT=  3500011 ScaDFX=  1.000000  1.000000  1.000000  1.000000
 FoFCou: FMM=F IPFlag=           0 FMFlag=      100000 FMFlg1=           0
         NFxFlg=           0 DoJE=T BraDBF=F KetDBF=T FulRan=T
         wScrn=  0.000000 ICntrl=       500 IOpCl=  0 I1Cent=   200000004 NGrid=           0
         NMat0=    1 NMatS0=      1 NMatT0=    0 NMatD0=    1 NMtDS0=    0 NMtDT0=    0
 Petite list used in FoFCou.
 Harris En= -308.951566413438    
 Leave Link  401 at Mon Sep 14 09:38:22 2020, MaxMem= 16106127360 cpu:              20.4 elap:               0.8
 (Enter /sw/contrib/gaussian/g16/B01/g16/l502.exe)
 Integral symmetry usage will be decided dynamically.
 Closed shell SCF:
 Using DIIS extrapolation, IDIIS=  1040.
 NGot= 16106127360 LenX= 16105854818 LenY= 16105724777
 Requested convergence on RMS density matrix=1.00D-08 within 128 cycles.
 Requested convergence on MAX density matrix=1.00D-06.
 Requested convergence on             energy=1.00D-06.
 No special actions if energy rises.
 Fock matrices will be formed incrementally for  20 cycles.
 Integral accuracy reduced to 1.0D-05 until final iterations.

 Cycle   1  Pass 0  IDiag  1:
 FoFJK:  IHMeth= 1 ICntrl=       0 DoSepK=F KAlg= 0 I1Cent=           0 FoldK=F
 IRaf= 990000000 NMat=       1 IRICut=       1 DoRegI=T DoRafI=F ISym2E= 0 IDoP0=0 IntGTp=1.
 FoFCou: FMM=F IPFlag=           0 FMFlag=      100000 FMFlg1=           0
         NFxFlg=           0 DoJE=F BraDBF=F KetDBF=F FulRan=T
         wScrn=  0.000000 ICntrl=         0 IOpCl=  0 I1Cent=           0 NGrid=           0
         NMat0=    1 NMatS0=      1 NMatT0=    0 NMatD0=    1 NMtDS0=    0 NMtDT0=    0
 Symmetry not used in FoFCou.
 E= -308.214951626170    
 DIIS: error= 1.58D-03 at cycle   1 NSaved=   1.
 NSaved= 1 IEnMin= 1 EnMin= -308.214951626170     IErMin= 1 ErrMin= 1.58D-03
 ErrMax= 1.58D-03  0.00D+00 EMaxC= 1.00D-01 BMatC= 4.37D-04 BMatP= 4.37D-04
 IDIUse=3 WtCom= 9.84D-01 WtEn= 1.58D-02
 Coeff-Com:  0.100D+01
 Coeff-En:   0.100D+01
 Coeff:      0.100D+01
 Gap=     0.874 Goal=   None    Shift=    0.000
 GapD=    0.874 DampG=2.000 DampE=1.000 DampFc=2.0000 IDamp=-1.
 RMSDP=4.44D-05 MaxDP=3.77D-03              OVMax= 3.06D-03

 Cycle   2  Pass 0  IDiag  1:
 RMSU=  4.43D-05    CP:  1.00D+00
 E= -308.215165573013     Delta-E=       -0.000213946843 Rises=F Damp=F
 DIIS: error= 2.61D-04 at cycle   2 NSaved=   2.
 NSaved= 2 IEnMin= 2 EnMin= -308.215165573013     IErMin= 2 ErrMin= 2.61D-04
 ErrMax= 2.61D-04  0.00D+00 EMaxC= 1.00D-01 BMatC= 3.49D-05 BMatP= 4.37D-04
 IDIUse=3 WtCom= 9.97D-01 WtEn= 2.61D-03
 Coeff-Com:  0.121D+00 0.879D+00
 Coeff-En:   0.000D+00 0.100D+01
 Coeff:      0.120D+00 0.880D+00
 Gap=     0.421 Goal=   None    Shift=    0.000
 RMSDP=1.68D-05 MaxDP=8.09D-04 DE=-2.14D-04 OVMax= 1.70D-03

 Cycle   3  Pass 0  IDiag  1:
 RMSU=  1.64D-05    CP:  1.00D+00  9.15D-01
 E= -308.215169968080     Delta-E=       -0.000004395067 Rises=F Damp=F
 DIIS: error= 2.29D-04 at cycle   3 NSaved=   3.
 NSaved= 3 IEnMin= 3 EnMin= -308.215169968080     IErMin= 3 ErrMin= 2.29D-04
 ErrMax= 2.29D-04  0.00D+00 EMaxC= 1.00D-01 BMatC= 2.90D-05 BMatP= 3.49D-05
 IDIUse=3 WtCom= 9.98D-01 WtEn= 2.29D-03
 Coeff-Com:  0.902D-02 0.475D+00 0.516D+00
 Coeff-En:   0.000D+00 0.445D+00 0.555D+00
 Coeff:      0.900D-02 0.475D+00 0.516D+00
 Gap=     0.421 Goal=   None    Shift=    0.000
 RMSDP=8.97D-06 MaxDP=3.99D-04 DE=-4.40D-06 OVMax= 8.80D-04

[...]
    13  H    3.167060   4.866341   2.724725   2.505576   3.724613
    14  H    3.820809   5.247556   2.796069   3.141109   3.791095
    15  H    2.506060   4.107622   3.459664   3.727298   4.294553
    16  H    3.860204   4.385885   2.782120   3.784474   3.106826
                   11         12         13         14         15
    11  H    0.000000
    12  C    2.766940   0.000000
    13  H    3.073070   1.088473   0.000000
    14  H    2.605318   1.089428   1.769497   0.000000
    15  H    3.774770   1.086831   1.766713   1.767016   0.000000
    16  H    2.602125   2.786561   3.777484   2.594042   3.144267
                   16
    16  H    0.000000
 Stoichiometry    C4H10O2
 Framework group  C1[X(C4H10O2)]
 Deg. of freedom    42
 Full point group                 C1      NOp   1
 RotChk:  IX=0 Diff= 2.92D-16
 Largest Abelian subgroup         C1      NOp   1
 Largest concise Abelian subgroup C1      NOp   1
                         Standard orientation:                         
 ---------------------------------------------------------------------
 Center     Atomic      Atomic             Coordinates (Angstroms)
 Number     Number       Type             X           Y           Z
 ---------------------------------------------------------------------
      1          6           0        0.392697   -0.006772    0.032832
      2          6           0        0.262309   -1.061663    1.124050
      3          1           0       -0.599491   -0.858178    1.755286
      4          1           0        0.152799   -2.051747    0.682787
      5          8           0       -0.728707   -0.078696   -0.876430
      6          8           0       -1.948909    0.232871   -0.146690
      7          1           0       -2.764419   -1.398815   -0.194063
      8          6           0        1.561841   -0.314724   -0.893835
      9          1           0        1.611492    0.415370   -1.699043
     10          1           0        1.457663   -1.307294   -1.328107
     11          1           0        2.493365   -0.277102   -0.331788
     12          6           0        0.503282    1.395890    0.615112
     13          1           0        0.587463    2.129085   -0.184957
     14          1           0        1.384822    1.470478    1.250861
     15          1           0       -0.374352    1.631957    1.211127
     16          1           0        1.150807   -1.063539    1.753904
 ---------------------------------------------------------------------
 Rotational constants (GHZ):           4.4053617           2.7551537           2.7249276
 Leave Link  202 at Mon Sep 14 12:26:48 2020, MaxMem= 16106127360 cpu:               1.9 elap:               0.1
 (Enter /sw/contrib/gaussian/g16/B01/g16/l601.exe)
 Copying SCF densities to generalized density rwf, IOpCl= 0 IROHF=0.

 **********************************************************************

            Population analysis using the MP2 Density.

 **********************************************************************

 Orbital symmetries:
       Occupied  (A) (A) (A) (A) (A) (A) (A) (A) (A) (A) (A) (A)
                 (A) (A) (A) (A) (A) (A) (A) (A) (A) (A) (A) (A)
                 (A)
       Virtual   (A) (A) (A) (A) (A) (A) (A) (A) (A) (A) (A) (A)
                 (A) (A) (A) (A) (A) (A) (A) (A) (A) (A) (A) (A)
                 (A) (A) (A) (A) (A) (A) (A) (A) (A) (A) (A) (A)
                 (A) (A) (A) (A) (A) (A) (A) (A) (A) (A) (A) (A)
                 (A) (A) (A) (A) (A) (A) (A) (A) (A) (A) (A) (A)
                 (A) (A) (A) (A) (A) (A) (A) (A) (A) (A) (A) (A)
                 (A) (A) (A) (A) (A) (A) (A) (A) (A) (A) (A) (A)
                 (A) (A) (A) (A) (A) (A) (A) (A) (A) (A) (A) (A)
                 (A) (A) (A) (A) (A) (A) (A) (A) (A) (A) (A) (A)
                 (A) (A) (A) (A) (A) (A) (A) (A) (A) (A) (A) (A)
                 (A) (A) (A) (A) (A) (A) (A) (A) (A) (A) (A) (A)
                 (A) (A) (A) (A) (A) (A) (A) (A) (A) (A) (A) (A)
                 (A) (A) (A) (A) (A) (A) (A) (A) (A) (A) (A) (A)
                 (A) (A) (A) (A) (A) (A) (A) (A) (A) (A) (A) (A)
                 (A) (A) (A) (A) (A) (A) (A) (A) (A) (A) (A) (A)
                 (A) (A) (A) (A) (A) (A) (A) (A) (A) (A) (A) (A)
                 (A) (A) (A) (A) (A) (A) (A) (A) (A) (A) (A) (A)
                 (A) (A) (A) (A) (A) (A) (A) (A) (A) (A) (A) (A)
                 (A) (A) (A) (A) (A) (A) (A) (A) (A) (A) (A) (A)
                 (A) (A) (A) (A) (A) (A) (A) (A) (A) (A) (A) (A)
                 (A) (A) (A) (A) (A) (A) (A) (A) (A) (A) (A) (A)
                 (A) (A) (A) (A) (A) (A) (A) (A) (A) (A) (A) (A)
                 (A) (A) (A) (A) (A) (A) (A) (A) (A) (A) (A) (A)
                 (A) (A) (A) (A) (A) (A) (A) (A) (A) (A) (A) (A)
                 (A) (A) (A) (A) (A) (A) (A)
 The electronic state is 1-A.
 Alpha  occ. eigenvalues --  -19.81938 -19.78965 -10.67926 -10.60698 -10.60364
 Alpha  occ. eigenvalues --  -10.60067  -1.24032  -1.00654  -0.89151  -0.80140
 Alpha  occ. eigenvalues --   -0.80031  -0.64341  -0.55794  -0.54116  -0.53857
 Alpha  occ. eigenvalues --   -0.48908  -0.48610  -0.45765  -0.44606  -0.44012
 Alpha  occ. eigenvalues --   -0.43456  -0.40088  -0.39541  -0.36627  -0.31953
 Alpha virt. eigenvalues --   -0.09155   0.07779   0.10601   0.12136   0.12784
 Alpha virt. eigenvalues --    0.14457   0.14540   0.15547   0.19043   0.19244
 Alpha virt. eigenvalues --    0.19671   0.21103   0.23797   0.24897   0.25785
 Alpha virt. eigenvalues --    0.29491   0.30695   0.31781   0.34271   0.37987
 Alpha virt. eigenvalues --    0.38442   0.41680   0.42742   0.45443   0.45953
 Alpha virt. eigenvalues --    0.48573   0.51190   0.51879   0.52128   0.52942
 Alpha virt. eigenvalues --    0.53705   0.54139   0.54632   0.55862   0.56212
 Alpha virt. eigenvalues --    0.56628   0.57444   0.58560   0.63446   0.64803
 Alpha virt. eigenvalues --    0.69088   0.70241   0.72796   0.74923   0.78245
 Alpha virt. eigenvalues --    0.80491   0.81578   0.83007   0.85687   0.86336
 Alpha virt. eigenvalues --    0.87168   0.90444   0.92884   0.95813   0.96553
 Alpha virt. eigenvalues --    0.99380   1.01992   1.02572   1.03902   1.04356
 Alpha virt. eigenvalues --    1.04662   1.05444   1.08084   1.11062   1.14901
 Alpha virt. eigenvalues --    1.15730   1.17037   1.17934   1.21145   1.23327
 Alpha virt. eigenvalues --    1.24519   1.28697   1.29190   1.31232   1.31768
 Alpha virt. eigenvalues --    1.32647   1.34927   1.36300   1.37185   1.38559
 Alpha virt. eigenvalues --    1.40398   1.41027   1.42846   1.43866   1.46471
 Alpha virt. eigenvalues --    1.48096   1.49916   1.54540   1.56134   1.57076
 Alpha virt. eigenvalues --    1.60806   1.61214   1.62841   1.64099   1.65274
 Alpha virt. eigenvalues --    1.66646   1.67607   1.72743   1.73720   1.79039
 Alpha virt. eigenvalues --    1.80531   1.84523   1.94261   2.04034   2.06118
 Alpha virt. eigenvalues --    2.16909   2.18647   2.25608   2.34322   2.34382
 Alpha virt. eigenvalues --    2.40609   2.43841   2.47246   2.48513   2.51435
 Alpha virt. eigenvalues --    2.56457   2.58835   2.60222   2.64581   2.65659
 Alpha virt. eigenvalues --    2.66891   2.69519   2.72384   2.72978   2.73504
 Alpha virt. eigenvalues --    2.80856   2.83630   2.86120   2.91098   2.91892
 Alpha virt. eigenvalues --    2.93088   2.93661   2.94261   2.94433   2.97515
 Alpha virt. eigenvalues --    2.98338   3.01756   3.05259   3.09800   3.10041
 Alpha virt. eigenvalues --    3.12532   3.14262   3.14758   3.17077   3.18247
 Alpha virt. eigenvalues --    3.18661   3.21610   3.23335   3.25710   3.26131
 Alpha virt. eigenvalues --    3.27798   3.27971   3.28584   3.30566   3.31402
 Alpha virt. eigenvalues --    3.32200   3.33480   3.35278   3.37551   3.39454
 Alpha virt. eigenvalues --    3.41257   3.42579   3.42928   3.44095   3.45395
 Alpha virt. eigenvalues --    3.48729   3.54291   3.55153   3.56039   3.58339
 Alpha virt. eigenvalues --    3.58448   3.58988   3.59482   3.62158   3.63075
 Alpha virt. eigenvalues --    3.66244   3.67925   3.70745   3.72005   3.74420
 Alpha virt. eigenvalues --    3.77519   3.80659   3.81233   3.81752   3.84078
 Alpha virt. eigenvalues --    3.84925   3.85932   3.87671   3.89395   3.92618
 Alpha virt. eigenvalues --    3.93793   3.94715   3.98719   4.02050   4.02798
 Alpha virt. eigenvalues --    4.06420   4.08239   4.09358   4.12484   4.14099
 Alpha virt. eigenvalues --    4.15923   4.17024   4.17331   4.17915   4.22836
 Alpha virt. eigenvalues --    4.25002   4.26139   4.28335   4.30379   4.32099
 Alpha virt. eigenvalues --    4.32305   4.33093   4.34102   4.35363   4.41272
 Alpha virt. eigenvalues --    4.43053   4.45118   4.45475   4.46382   4.49035
 Alpha virt. eigenvalues --    4.49979   4.51971   4.56896   4.57389   4.67342
 Alpha virt. eigenvalues --    4.68202   4.71871   4.75793   4.82420   4.91068
 Alpha virt. eigenvalues --    4.91557   4.93183   4.94425   4.96783   4.97813
 Alpha virt. eigenvalues --    5.01451   5.02737   5.05266   5.07579   5.11980
 Alpha virt. eigenvalues --    5.19271   5.19941   5.24372   5.25277   5.29222
 Alpha virt. eigenvalues --    5.30839   5.31169   5.31604   5.33224   5.34380
 Alpha virt. eigenvalues --    5.38224   5.38846   5.40468   5.41382   5.44382
 Alpha virt. eigenvalues --    5.46144   5.46806   5.48481   5.49405   5.50897
 Alpha virt. eigenvalues --    5.54327   5.55451   5.58285   5.61623   5.65727
 Alpha virt. eigenvalues --    5.68811   5.69498   5.79845   5.95638   6.03249
 Alpha virt. eigenvalues --    6.03688   6.04394   6.06921   6.08884   6.12060
 Alpha virt. eigenvalues --    6.16311   6.19352   6.27221   6.50923   6.53540
 Alpha virt. eigenvalues --    6.57557   6.75376   6.85675   6.98885   7.03933
 Alpha virt. eigenvalues --    7.18081   7.39144   7.39286   7.77908   9.51694
 Alpha virt. eigenvalues --   10.13174  11.12322  13.99358  14.05397  14.06589
          Condensed to atoms (all electrons):
               1          2          3          4          5          6
     1  C    4.875176   0.294707  -0.036340  -0.030886   0.290204  -0.056058
     2  C    0.294707   5.068794   0.394934   0.384548  -0.051525   0.001993
     3  H   -0.036340   0.394934   0.561713  -0.029354  -0.006823   0.015843
     4  H   -0.030886   0.384548  -0.029354   0.587357   0.003268  -0.000905
     5  O    0.290204  -0.051525  -0.006823   0.003268   7.926608   0.099268
     6  O   -0.056058   0.001993   0.015843  -0.000905   0.099268   8.006951
     7  H   -0.009531   0.007452   0.001585  -0.001874  -0.034733   0.140496
     8  C    0.324783  -0.055966   0.007610  -0.005466  -0.033836   0.004156
     9  H   -0.029682   0.009204  -0.000374  -0.000297   0.002368  -0.000144
    10  H   -0.029098  -0.009436  -0.000244   0.004274   0.001411  -0.000173
    11  H   -0.041846   0.000057   0.000009   0.000047   0.003044  -0.000289
    12  C    0.324729  -0.074675  -0.006799   0.008678  -0.051980  -0.013375
    13  H   -0.032197   0.008574   0.000070  -0.000563   0.004151  -0.000319
    14  H   -0.030731   0.001131   0.000548  -0.000314   0.004680   0.000247
    15  H   -0.030436  -0.005423   0.002708  -0.000020  -0.006910   0.012093
    16  H   -0.029713   0.385037  -0.027081  -0.026519   0.004330   0.000987
               7          8          9         10         11         12
     1  C   -0.009531   0.324783  -0.029682  -0.029098  -0.041846   0.324729
     2  C    0.007452  -0.055966   0.009204  -0.009436   0.000057  -0.074675
     3  H    0.001585   0.007610  -0.000374  -0.000244   0.000009  -0.006799
     4  H   -0.001874  -0.005466  -0.000297   0.004274   0.000047   0.008678
     5  O   -0.034733  -0.033836   0.002368   0.001411   0.003044  -0.051980
     6  O    0.140496   0.004156  -0.000144  -0.000173  -0.000289  -0.013375
     7  H    0.765625  -0.000531   0.000137  -0.000330   0.000005  -0.001207
     8  C   -0.000531   4.968536   0.393362   0.393914   0.387784  -0.051276
     9  H    0.000137   0.393362   0.570533  -0.027164  -0.028071  -0.009286
    10  H   -0.000330   0.393914  -0.027164   0.576024  -0.028855   0.008894
    11  H    0.000005   0.387784  -0.028071  -0.028855   0.604875   0.000599
    12  C   -0.001207  -0.051276  -0.009286   0.008894   0.000599   5.034769
    13  H    0.000129  -0.005322   0.004331  -0.000263   0.000025   0.386528
    14  H    0.000042  -0.005937   0.000768  -0.000366   0.000883   0.378109
    15  H   -0.000702   0.007434  -0.000188  -0.000407   0.000103   0.395375
    16  H   -0.000197  -0.005273  -0.000297   0.000615   0.000507   0.000188
              13         14         15         16
     1  C   -0.032197  -0.030731  -0.030436  -0.029713
     2  C    0.008574   0.001131  -0.005423   0.385037
     3  H    0.000070   0.000548   0.002708  -0.027081
     4  H   -0.000563  -0.000314  -0.000020  -0.026519
     5  O    0.004151   0.004680  -0.006910   0.004330
     6  O   -0.000319   0.000247   0.012093   0.000987
     7  H    0.000129   0.000042  -0.000702  -0.000197
     8  C   -0.005322  -0.005937   0.007434  -0.005273
     9  H    0.004331   0.000768  -0.000188  -0.000297
    10  H   -0.000263  -0.000366  -0.000407   0.000615
    11  H    0.000025   0.000883   0.000103   0.000507
    12  C    0.386528   0.378109   0.395375   0.000188
    13  H    0.576673  -0.026399  -0.025396  -0.000299
    14  H   -0.026399   0.611176  -0.030698  -0.001364
    15  H   -0.025396  -0.030698   0.559925   0.000550
    16  H   -0.000299  -0.001364   0.000550   0.589775
 Mulliken charges:
               1
     1  C    0.246920
     2  C   -0.359406
     3  H    0.121993
     4  H    0.108027
     5  O   -0.153526
     6  O   -0.210773
     7  H    0.133634
     8  C   -0.323972
     9  H    0.114801
    10  H    0.111203
    11  H    0.101122
    12  C   -0.329273
    13  H    0.110278
    14  H    0.098224
    15  H    0.121992
    16  H    0.108754
 Sum of Mulliken charges =  -0.00000
 Mulliken charges with hydrogens summed into heavy atoms:
               1
     1  C    0.246920
     2  C   -0.020631
     5  O   -0.153526
     6  O   -0.077139
     8  C    0.003155
    12  C    0.001221
 Electronic spatial extent (au):  <R**2>=            618.7931
 Charge=             -0.0000 electrons
 Dipole moment (field-independent basis, Debye):
    X=              1.3567    Y=             -0.9697    Z=              0.8842  Tot=              1.8876
 Quadrupole moment (field-independent basis, Debye-Ang):
   XX=            -38.4025   YY=            -37.2541   ZZ=            -40.2089
   XY=              3.0201   XZ=             -0.9134   YZ=              0.3860
 Traceless Quadrupole moment (field-independent basis, Debye-Ang):
   XX=              0.2194   YY=              1.3677   ZZ=             -1.5871
   XY=              3.0201   XZ=             -0.9134   YZ=              0.3860
 Octapole moment (field-independent basis, Debye-Ang**2):
  XXX=            -10.8567  YYY=             -1.0752  ZZZ=             -2.9341  XYY=             -7.4425
  XXY=             -7.9283  XXZ=              0.6965  XZZ=             -0.4510  YZZ=              1.3604
  YYZ=             -3.2836  XYZ=             -1.2891
 Hexadecapole moment (field-independent basis, Debye-Ang**3):
 XXXX=           -372.5320 YYYY=           -231.6273 ZZZZ=           -212.2507 XXXY=             19.4257
 XXXZ=              6.6634 YYYX=              1.1322 YYYZ=              1.3437 ZZZX=              1.0347
 ZZZY=             -0.1701 XXYY=            -93.7206 XXZZ=           -100.2125 YYZZ=            -74.4264
 XXYZ=              2.9968 YYXZ=              0.4785 ZZXY=             -1.3493
 N-N= 2.675533135059D+02 E-N=-1.256695294621D+03  KE= 3.070580407491D+02
 No NMR shielding tensors so no spin-rotation constants.
 Leave Link  601 at Mon Sep 14 12:26:48 2020, MaxMem= 16106127360 cpu:               5.2 elap:               0.2
 (Enter /sw/contrib/gaussian/g16/B01/g16/l9999.exe)
 1\1\GINC-N2182\Scan\RB2PLYPD3-FC\CC-pVTZ\C4H10O2\ABMCCOY\14-Sep-2020\1
 \\#p opt=(z-matrix) cc-pvtz b2plypd3 integral=ultrafine scf=verytight 
 density=current\\title\\0,1\C\C,1,B1\H,2,B2,1,A1\H,2,B3,1,A2,3,D1,0\O,
 1,B4,2,A3,3,D2,0\O,5,B5,1,A4,2,D3,0\H,6,B6,5,A5,1,D4,0\C,1,B7,5,A6,6,D
 5,0\H,8,B8,1,A7,5,D6,0\H,8,B9,1,A8,5,D7,0\H,8,B10,1,A9,5,D8,0\C,1,B11,
 5,A10,6,D9,0\H,12,B12,1,A11,5,D10,0\H,12,B13,1,A12,5,D11,0\H,12,B14,1,
 A13,5,D12,0\H,2,B15,1,A14,5,D13,0\\B1=1.52333697,s,-1000,0.\B2=1.08745
 721,s,-1000,0.\B3=1.08948202,s,-1000,0.\B4=1.44550256,s,-1000,0.\B5=1.
 45550294,s,-1000,0.\B6=1.82474663,s,55,0.02\B7=1.52330061,s,-1000,0.\B
 8=1.08805447,s,-1000,0.\B9=1.08841219,s,-1000,0.\B10=1.08859909,s,-100
 0,0.\B11=1.52274043,s,-1000,0.\B12=1.08847298,s,-1000,0.\B13=1.0894277
 6,s,-1000,0.\B14=1.08683078,s,-1000,0.\B15=1.08910436,s,-1000,0.\A1=11
 0.73607732,s,-1000,0.\A2=110.35165738,s,-1000,0.\A3=110.47113069,s,-10
 00,0.\A4=108.92603359,s,-1000,0.\A5=99.80161689,s,-1000,0.\A6=101.6953
 6632,s,-1000,0.\A7=110.46045003,s,-1000,0.\A8=110.7087156,s,-1000,0.\A
 9=109.61473834,s,-1000,0.\A10=110.04188385,s,-1000,0.\A11=110.18343179
 ,s,-1000,0.\A12=110.1804721,s,-1000,0.\A13=110.55684835,s,-1000,0.\A14
 =110.2206386,s,-1000,0.\D1=120.77342844,s,-1000,0.\D2=-65.43866595,s,-
 1000,0.\D3=63.45067701,s,-1000,0.\D4=-112.20821826,s,-1000,0.\D5=-178.
 4312704,s,-1000,0.\D6=59.35992592,s,-1000,0.\D7=-61.12715429,s,-1000,0
 .\D8=179.05466438,s,-1000,0.\D9=-60.38297228,s,-1000,0.\D10=-56.467593
 17,s,-1000,0.\D11=-176.37615931,s,-1000,0.\D12=63.60565855,s,-1000,0.\
 D13=174.95789622,s,-1000,0.\\Version=ES64L-G16RevB.01\State=1-A\HF=-30
 8.1951167,-308.2151959,-308.2320125,-308.2459739,-308.2574354,-308.266
 7077,-308.2740633,-308.2797411,-308.2839506,-308.2868763,-308.2886804,
 -308.2895057,-308.2894777,-308.2887074,-308.2872924,-308.285319,-308.2
 828634,-308.2799928,-308.2767669,-308.2732386,-308.269455,-308.2654581
 ,-308.2612857,-308.2569722,-308.2525486,-308.2480422,-308.243476,-308.
 2388665,-308.2342252,-308.2295618,-308.2248869,-308.2202124,-308.21555
 04,-308.210912,-308.2063067,-308.2017426,-308.1972265,-308.192764,-308
 .18836,-308.1840183,-308.1797421,-308.1755343,-308.171397,-308.1673319
 ,-308.1633405,-308.1594237,-308.1555824,-308.151817,-308.1481278,-308.
 1445149,-308.1409781,-308.137517,-308.1341314,-308.1308205,-308.127583
 8,-308.1244203\MP2=-308.5807022,-308.6011075,-308.6182601,-308.6325667
 ,-308.6443823,-308.6540172,-308.6617434,-308.6677996,-308.672395,-308.
 6757138,-308.677918,-308.67915,-308.6795354,-308.679185,-308.6781962,-
 308.6766553,-308.6746382,-308.6722125,-308.6694379,-308.6663671,-308.6
 630475,-308.6595212,-308.6558262,-308.6519971,-308.648065,-308.6440577
 ,-308.6399981,-308.6359031,-308.6317845,-308.6276522,-308.623517,-308.
 6193912,-308.615287,-308.6112158,-308.6071872,-308.6032096,-308.59929,
 -308.5954342,-308.5916471,-308.5879326,-308.5842941,-308.5807344,-308.
 5772557,-308.5738597,-308.5705478,-308.5673209,-308.5641795,-308.56112
 42,-308.5581549,-308.5552715,-308.5524736,-308.5497606,-308.5471318,-3
 08.5445863,-308.5421231,-308.539741\RMSD=5.890e-09,8.028e-09,7.816e-09
 ,7.650e-09,7.531e-09,7.449e-09,7.384e-09,7.324e-09,7.265e-09,7.199e-09
 ,7.120e-09,7.031e-09,6.931e-09,6.825e-09,6.711e-09,6.591e-09,6.472e-09
 ,6.356e-09,6.246e-09,6.145e-09,6.058e-09,5.990e-09,5.947e-09,5.933e-09
 ,5.957e-09,6.031e-09,6.161e-09,6.364e-09,6.651e-09,7.038e-09,7.547e-09
 ,8.194e-09,8.999e-09,9.976e-09,9.076e-09,1.418e-09,1.535e-09,1.660e-09
 ,1.794e-09,1.940e-09,4.570e-09,5.132e-09,5.794e-09,6.553e-09,7.399e-09
 ,8.309e-09,9.237e-09,1.382e-09,1.501e-09,1.624e-09,9.617e-09,8.717e-09
 ,1.681e-09,1.784e-09,1.973e-09,9.125e-09\PG=C01 [X(C4H10O2)]\\@


 WHEN IT COMES TO CASH FLOW, IT SEEMS LIKE THE TIDE IS ALWAYS GOING OUT.
 Job cpu time:       2 days 13 hours 50 minutes  6.8 seconds.
 Elapsed time:       0 days  2 hours 51 minutes 24.2 seconds.
 File lengths (MBytes):  RWF=     77 Int=      0 D2E=      0 Chk=     16 Scr=      1
 Normal termination of Gaussian 16 at Mon Sep 14 12:26:48 2020.
