 Entering Gaussian System, Link 0=g09
 Input=water_dimer_test.gjf
 Output=water_dimer_test.log
 Initial command:
 /usr/local/gaussian/g09/l1.exe "/scratch/Gau-18607.inp" -scrdir="/scratch/"
 Entering Link 1 = /usr/local/gaussian/g09/l1.exe PID=     18608.
  
 Copyright (c) 1988,1990,1992,1993,1995,1998,2003,2009,2015,
            Gaussian, Inc.  All Rights Reserved.
  
 This is part of the Gaussian(R) 09 program.  It is based on
 the Gaussian(R) 03 system (copyright 2003, Gaussian, Inc.),
 the Gaussian(R) 98 system (copyright 1998, Gaussian, Inc.),
 the Gaussian(R) 94 system (copyright 1995, Gaussian, Inc.),
 the Gaussian 92(TM) system (copyright 1992, Gaussian, Inc.),
 the Gaussian 90(TM) system (copyright 1990, Gaussian, Inc.),
 the Gaussian 88(TM) system (copyright 1988, Gaussian, Inc.),
 the Gaussian 86(TM) system (copyright 1986, Carnegie Mellon
 University), and the Gaussian 82(TM) system (copyright 1983,
 Carnegie Mellon University). Gaussian is a federally registered
 trademark of Gaussian, Inc.
  
 This software contains proprietary and confidential information,
 including trade secrets, belonging to Gaussian, Inc.
  
 This software is provided under written license and may be
 used, copied, transmitted, or stored only in accord with that
 written license.
  
 The following legend is applicable only to US Government
 contracts under FAR:
  
                    RESTRICTED RIGHTS LEGEND
  
 Use, reproduction and disclosure by the US Government is
 subject to restrictions as set forth in subparagraphs (a)
 and (c) of the Commercial Computer Software - Restricted
 Rights clause in FAR 52.227-19.
  
 Gaussian, Inc.
 340 Quinnipiac St., Bldg. 40, Wallingford CT 06492
  
  
 ---------------------------------------------------------------
 Warning -- This program may not be used in any manner that
 competes with the business of Gaussian, Inc. or will provide
 assistance to any competitor of Gaussian, Inc.  The licensee
 of this program is prohibited from giving any competitor of
 Gaussian, Inc. access to this program.  By using this program,
 the user acknowledges that Gaussian, Inc. is engaged in the
 business of creating and licensing software in the field of
 computational chemistry and represents and warrants to the
 licensee that it is not a competitor of Gaussian, Inc. and that
 it will not use this program in any manner prohibited above.
 ---------------------------------------------------------------
  

 Cite this work as:
 Gaussian 09, Revision E.01,
 M. J. Frisch, G. W. Trucks, H. B. Schlegel, G. E. Scuseria, 
 M. A. Robb, J. R. Cheeseman, G. Scalmani, V. Barone, B. Mennucci, 
 G. A. Petersson, H. Nakatsuji, M. Caricato, X. Li, H. P. Hratchian, 
 A. F. Izmaylov, J. Bloino, G. Zheng, J. L. Sonnenberg, M. Hada, 
 M. Ehara, K. Toyota, R. Fukuda, J. Hasegawa, M. Ishida, T. Nakajima, 
 Y. Honda, O. Kitao, H. Nakai, T. Vreven, J. A. Montgomery, Jr., 
 J. E. Peralta, F. Ogliaro, M. Bearpark, J. J. Heyd, E. Brothers, 
 K. N. Kudin, V. N. Staroverov, T. Keith, R. Kobayashi, J. Normand, 
 K. Raghavachari, A. Rendell, J. C. Burant, S. S. Iyengar, J. Tomasi, 
 M. Cossi, N. Rega, J. M. Millam, M. Klene, J. E. Knox, J. B. Cross, 
 V. Bakken, C. Adamo, J. Jaramillo, R. Gomperts, R. E. Stratmann, 
 O. Yazyev, A. J. Austin, R. Cammi, C. Pomelli, J. W. Ochterski, 
 R. L. Martin, K. Morokuma, V. G. Zakrzewski, G. A. Voth, 
 P. Salvador, J. J. Dannenberg, S. Dapprich, A. D. Daniels, 
 O. Farkas, J. B. Foresman, J. V. Ortiz, J. Cioslowski, 
 and D. J. Fox, Gaussian, Inc., Wallingford CT, 2013.
 
 ******************************************
 Gaussian 09:  ES64L-G09RevE.01 30-Nov-2015
                 6-Oct-2019 
 ******************************************
 %Chk=water_dimer_OH_scan.chk
 %NProc=8
 Will use up to    8 processors via shared memory.
 %Mem=1000MB
 ------------------------------------------------
 #MP2/aug-cc-pvdz #Density=current #POpt=Z-Matrix
 ------------------------------------------------
 1/10=7,18=40,38=1/1,3;
 2/12=2,17=6,18=5,29=3,40=1/2;
 3/5=16,7=10,11=9,16=1,25=1,30=1,71=1/1,2,3;
 4//1;
 5/5=2,38=5/2;
 8/6=4,10=1/1;
 9/15=2,16=-3/6;
 10/5=1/2;
 6/7=2,8=2,9=2,10=2,22=-1/1;
 7/12=2,29=1/1,2,3,16;
 1/10=7,18=40/3(2);
 2/29=3/2;
 99//99;
 2/29=3/2;
 3/5=16,7=10,11=9,16=1,25=1,30=1,71=1/1,2,3;
 4/5=5,16=3,69=1/1;
 5/5=2,38=5/2;
 8/6=4,10=1/1;
 9/15=2,16=-3/6;
 10/5=1/2;
 7/12=2/1,2,3,16;
 1/18=40/3(-8);
 2/29=3/2;
 6/7=2,8=2,9=2,10=2,22=-1/1;
 99//99;
 -----------------------------------------------------
 Scan of OH bond distance at different dimer positions
 -----------------------------------------------------
 Symbolic Z-matrix:
 Charge =  0 Multiplicity = 1
 H
 O                    1    r1
 X                    2    rX       1    aX
 H                    2    r2       1    a1       3    t1       0
 O                    2    r3       3    aX       4    tX       0
 H                    5    r4       4    a3       1    t2       0
 H                    5    r5       4    a4       1    t3       0
       Variables:
  r1                    0.57274Scan 2     0.1    
  r2                    0.96477 -1        0.     
  r3                    2.5721 Scan 2     0.5    
  r4                    0.96659 -1        0.     
  r5                    0.96659 -1        0.     
  a1                  104.28458                  
  a3                  109.24016                  
  a4                  109.24016                  
  t1                  180.      -1        0.     
  t2                  123.31454                  
  t3                  236.68546                  
  rX                    2.      -1        0.     
  aX                   90.      -1        0.     
  tX                  180.      -1        0.     
 

 GradGradGradGradGradGradGradGradGradGradGradGradGradGradGradGradGradGrad
 Berny optimization.
 Initialization pass.
                       ----------------------------
                       !    Initial Parameters    !
                       ! (Angstroms and Degrees)  !
 ----------------------                            ----------------------
 !      Name          Value   Derivative information (Atomic Units)     !
 ------------------------------------------------------------------------
 !       r1          0.5727   Scan                                      !
 !       r2          0.9648   Frozen                                    !
 !       r3          2.5721   Scan                                      !
 !       r4          0.9666   Frozen                                    !
 !       r5          0.9666   Frozen                                    !
 !       a1        104.2846   estimate D2E/DX2                          !
 !       a3        109.2402   estimate D2E/DX2                          !
 !       a4        109.2402   estimate D2E/DX2                          !
 !       t1        180.0      Frozen                                    !
 !       t2        123.3145   estimate D2E/DX2                          !
 !       t3        236.6855   estimate D2E/DX2                          !
 !       rX          2.0      Frozen                                    !
 !       aX         90.0      Frozen                                    !
 !       tX        180.0      Frozen                                    !
 ------------------------------------------------------------------------
 Trust Radius=3.00D-01 FncErr=1.00D-07 GrdErr=1.00D-07
 Number of optimizations in scan=   9
 Number of steps in this run=     24 maximum allowed number of steps=    100.
 GradGradGradGradGradGradGradGradGradGradGradGradGradGradGradGradGradGrad

 ---------------------------------------------------------------------------------------------------
                            Z-MATRIX (ANGSTROMS AND DEGREES)
   CD    Cent   Atom    N1       Length/X        N2       Alpha/Y        N3        Beta/Z          J
 ---------------------------------------------------------------------------------------------------
      1      1  H 
      2      2  O        1   0.572740(     1)
      3         X        2   2.000000(     2)      1   90.000(     7)
      4      3  H        2   0.964770(     3)      1  104.285(     8)      3  180.000(    12)      0
      5      4  O        2   2.572100(     4)      3   90.000(     9)      4  180.000(    13)      0
      6      5  H        5   0.966590(     5)      4  109.240(    10)      1  123.315(    14)      0
      7      6  H        5   0.966590(     6)      4  109.240(    11)      1  236.685(    15)      0
 ---------------------------------------------------------------------------------------------------
                         Z-Matrix orientation:                         
 ---------------------------------------------------------------------
 Center     Atomic      Atomic             Coordinates (Angstroms)
 Number     Number       Type             X           Y           Z
 ---------------------------------------------------------------------
      1          1           0        0.000000    0.000000    0.000000
      2          8           0        0.000000    0.000000    0.572740
      3         -1           0        2.000000    0.000000    0.572740
      4          1           0       -0.934941    0.000000    0.810786
      5          8           0        0.000000   -0.000000   -1.999360
      6          1           0       -0.375048   -0.762632   -2.459824
      7          1           0       -0.375048    0.762632   -2.459824
 ---------------------------------------------------------------------
                    Distance matrix (angstroms):
                    1          2          3          4          5
     1  H    0.000000
     2  O    0.572740   0.000000
     3  X    2.080392   2.000000   0.000000
     4  H    1.237533   0.964770   2.944579   0.000000
     5  O    1.999360   2.572100   3.258174   2.961593   0.000000
     6  H    2.602500   3.149399   3.926692   3.404699   0.966590
     7  H    2.602500   3.149399   3.926692   3.404699   0.966590
                    6          7
     6  H    0.000000
     7  H    1.525264   0.000000
 Stoichiometry    H4O2
 Framework group  CS[SG(H2O2),X(H2)]
 Deg. of freedom     8
 Full point group                 CS      NOp   2
 Largest Abelian subgroup         CS      NOp   2
 Largest concise Abelian subgroup CS      NOp   2
                         Standard orientation:                         
 ---------------------------------------------------------------------
 Center     Atomic      Atomic             Coordinates (Angstroms)
 Number     Number       Type             X           Y           Z
 ---------------------------------------------------------------------
      1          1           0       -0.084252   -0.776091   -0.000000
      2          8           0       -0.084252   -1.348831   -0.000000
      3          1           0        0.850690   -1.586877   -0.000000
      4          8           0       -0.084252    1.223269    0.000000
      5          1           0        0.290796    1.683733    0.762632
      6          1           0        0.290796    1.683733   -0.762632
 ---------------------------------------------------------------------
 Rotational constants (GHZ):    223.9929562      8.0281427      8.0168839
 Standard basis: Aug-CC-pVDZ (5D, 7F)
 There are    59 symmetry adapted cartesian basis functions of A'  symmetry.
 There are    27 symmetry adapted cartesian basis functions of A"  symmetry.
 There are    55 symmetry adapted basis functions of A'  symmetry.
 There are    27 symmetry adapted basis functions of A"  symmetry.
    82 basis functions,   130 primitive gaussians,    86 cartesian basis functions
    10 alpha electrons       10 beta electrons
       nuclear repulsion energy        41.4334991154 Hartrees.
 NAtoms=    6 NActive=    6 NUniq=    5 SFac= 1.44D+00 NAtFMM=   60 NAOKFM=F Big=F
 Integral buffers will be    131072 words long.
 Raffenetti 1 integral format.
 Two-electron integral symmetry is turned on.
 One-electron integrals computed using PRISM.
 NBasis=    82 RedAO= T EigKep=  1.13D-03  NBF=    55    27
 NBsUse=    82 1.00D-06 EigRej= -1.00D+00 NBFU=    55    27
 ExpMin= 2.97D-02 ExpMax= 1.17D+04 ExpMxC= 4.01D+02 IAcc=3 IRadAn=         5 AccDes= 0.00D+00
 Harris functional with IExCor=  205 and IRadAn=       5 diagonalized for initial guess.
 HarFok:  IExCor=  205 AccDes= 0.00D+00 IRadAn=         5 IDoV= 1 UseB2=F ITyADJ=14
 ICtDFT=  3500011 ScaDFX=  1.000000  1.000000  1.000000  1.000000
 FoFCou: FMM=F IPFlag=           0 FMFlag=      100000 FMFlg1=           0
         NFxFlg=           0 DoJE=T BraDBF=F KetDBF=T FulRan=T
         wScrn=  0.000000 ICntrl=     500 IOpCl=  0 I1Cent=   200000004 NGrid=           0
         NMat0=    1 NMatS0=      1 NMatT0=    0 NMatD0=    1 NMtDS0=    0 NMtDT0=    0
 Petite list used in FoFCou.
 Initial guess orbital symmetries:
       Occupied  (A') (A') (A') (A') (A') (A") (A') (A") (A') (A')
       Virtual   (A') (A') (A") (A') (A') (A") (A') (A') (A') (A")
                 (A') (A") (A') (A') (A') (A") (A') (A") (A') (A')
                 (A') (A") (A") (A') (A') (A") (A') (A') (A") (A')
                 (A') (A') (A") (A') (A") (A") (A') (A') (A') (A')
                 (A") (A') (A') (A") (A') (A") (A") (A') (A") (A')
                 (A') (A") (A') (A') (A") (A') (A') (A') (A") (A')
                 (A') (A") (A') (A") (A') (A") (A') (A') (A') (A')
                 (A") (A')
 The electronic state of the initial guess is 1-A'.
 Keep R1 ints in memory in symmetry-blocked form, NReq=8785626.
 Requested convergence on RMS density matrix=1.00D-08 within 128 cycles.
 Requested convergence on MAX density matrix=1.00D-06.
 Requested convergence on             energy=1.00D-06.
 No special actions if energy rises.
 SCF Done:  E(RHF) =  -151.658268382     A.U. after   11 cycles
            NFock= 11  Conv=0.29D-08     -V/T= 1.9880
 ExpMin= 2.97D-02 ExpMax= 1.17D+04 ExpMxC= 4.01D+02 IAcc=3 IRadAn=         5 AccDes= 0.00D+00
 HarFok:  IExCor=  205 AccDes= 0.00D+00 IRadAn=         5 IDoV=-2 UseB2=F ITyADJ=14
 ICtDFT= 12500011 ScaDFX=  1.000000  1.000000  1.000000  1.000000
 Range of M.O.s used for correlation:     3    82
 NBasis=    82 NAE=    10 NBE=    10 NFC=     2 NFV=     0
 NROrb=     80 NOA=     8 NOB=     8 NVA=    72 NVB=    72

 **** Warning!!: The largest alpha MO coefficient is  0.10481862D+02

 Fully direct method using O(ONN) memory.
 JobTyp=1 Pass  1:  I=   3 to  10 NPSUse=  8 ParTrn=T ParDer=T DoDerP=T.
 Spin components of T(2) and E(2):
     alpha-alpha T2 =       0.1417625225D-01 E2=     -0.5435975908D-01
     alpha-beta  T2 =       0.7979100338D-01 E2=     -0.3162673998D+00
     beta-beta   T2 =       0.1417625225D-01 E2=     -0.5435975908D-01
 ANorm=    0.1052683954D+01
 E2 =    -0.4249869179D+00 EUMP2 =    -0.15208325529983D+03
          IDoAtm=111111
          Differentiating once with respect to electric field.
                with respect to dipole field.
          Differentiating once with respect to nuclear coordinates.
 Keep R1 ints in memory in symmetry-blocked form, NReq=8744513.
          There are     1 degrees of freedom in the 1st order CPHF.  IDoFFX=0 NUNeed=     1.
 LinEq1:  Iter=  0 NonCon=     1 RMS=5.42D-03 Max=5.13D-02 NDo=     1
 AX will form     1 AO Fock derivatives at one time.
 LinEq1:  Iter=  1 NonCon=     1 RMS=1.23D-03 Max=9.29D-03 NDo=     1
 LinEq1:  Iter=  2 NonCon=     1 RMS=4.10D-04 Max=2.90D-03 NDo=     1
 LinEq1:  Iter=  3 NonCon=     1 RMS=7.54D-05 Max=5.97D-04 NDo=     1
 LinEq1:  Iter=  4 NonCon=     1 RMS=2.82D-05 Max=2.04D-04 NDo=     1
 LinEq1:  Iter=  5 NonCon=     1 RMS=5.38D-06 Max=2.93D-05 NDo=     1
 LinEq1:  Iter=  6 NonCon=     1 RMS=1.10D-06 Max=5.79D-06 NDo=     1
 LinEq1:  Iter=  7 NonCon=     1 RMS=1.55D-07 Max=7.91D-07 NDo=     1
 LinEq1:  Iter=  8 NonCon=     1 RMS=2.13D-08 Max=1.38D-07 NDo=     1
 LinEq1:  Iter=  9 NonCon=     1 RMS=3.50D-09 Max=2.03D-08 NDo=     1
 LinEq1:  Iter= 10 NonCon=     1 RMS=6.12D-10 Max=3.44D-09 NDo=     1
 LinEq1:  Iter= 11 NonCon=     0 RMS=9.25D-11 Max=8.04D-10 NDo=     1
 Linear equations converged to 1.000D-10 1.000D-09 after    11 iterations.
 End of Minotr F.D. properties file   721 does not exist.
 End of Minotr F.D. properties file   722 does not exist.
 End of Minotr F.D. properties file   788 does not exist.

 **********************************************************************

            Population analysis using the MP2 density.

 **********************************************************************

 Orbital symmetries:
       Occupied  (A') (A') (A') (A') (A') (A") (A') (A') (A') (A")
       Virtual   (A') (A") (A') (A') (A') (A') (A") (A') (A") (A')
                 (A') (A') (A") (A') (A') (A") (A') (A") (A') (A')
                 (A") (A') (A") (A') (A') (A") (A') (A') (A") (A')
                 (A') (A') (A") (A') (A") (A') (A") (A') (A') (A')
                 (A") (A') (A') (A") (A') (A") (A") (A") (A') (A')
                 (A') (A') (A") (A') (A") (A') (A') (A') (A") (A')
                 (A') (A') (A") (A') (A") (A") (A') (A') (A') (A')
                 (A") (A')
 The electronic state is 1-A'.
 Alpha  occ. eigenvalues --  -20.59320 -20.51592  -1.49978  -1.36859  -0.80378
 Alpha  occ. eigenvalues --   -0.72923  -0.60376  -0.58827  -0.52499  -0.50530
 Alpha virt. eigenvalues --    0.02655   0.05443   0.05449   0.08508   0.16902
 Alpha virt. eigenvalues --    0.19600   0.20405   0.20506   0.22947   0.23448
 Alpha virt. eigenvalues --    0.27121   0.28148   0.29948   0.33371   0.34911
 Alpha virt. eigenvalues --    0.37431   0.40408   0.42075   0.50072   0.51947
 Alpha virt. eigenvalues --    0.54298   0.58791   0.58864   0.64354   0.65455
 Alpha virt. eigenvalues --    0.66478   0.68203   0.76259   0.82001   0.94143
 Alpha virt. eigenvalues --    0.96068   1.04603   1.09628   1.15005   1.15266
 Alpha virt. eigenvalues --    1.18625   1.19201   1.28930   1.32437   1.46076
 Alpha virt. eigenvalues --    1.47155   1.59745   1.63962   1.68911   1.77589
 Alpha virt. eigenvalues --    1.99094   2.06060   2.09083   2.14057   2.15954
 Alpha virt. eigenvalues --    2.20849   2.41230   2.45809   2.52148   2.59076
 Alpha virt. eigenvalues --    2.60585   2.65926   2.75008   2.76497   3.02997
 Alpha virt. eigenvalues --    3.05660   3.67441   3.67700   3.70225   3.70914
 Alpha virt. eigenvalues --    3.89449   3.90686   4.02279   4.13516   4.24611
 Alpha virt. eigenvalues --    4.30072   5.96096
          Condensed to atoms (all electrons):
               1          2          3          4          5          6
     1  H    1.512296   0.036876  -0.229370  -0.056256  -0.011921  -0.011921
     2  O    0.036876   7.350246   0.442242  -0.026476   0.004477   0.004477
     3  H   -0.229370   0.442242   0.741049   0.000000  -0.000060  -0.000060
     4  O   -0.056256  -0.026476   0.000000   7.710138   0.333143   0.333143
     5  H   -0.011921   0.004477  -0.000060   0.333143   0.588086  -0.063248
     6  H   -0.011921   0.004477  -0.000060   0.333143  -0.063248   0.588086
 Mulliken charges:
               1
     1  H   -0.239706
     2  O    0.188158
     3  H    0.046198
     4  O   -0.293693
     5  H    0.149521
     6  H    0.149521
 Sum of Mulliken charges =  -0.00000
 Mulliken charges with hydrogens summed into heavy atoms:
               1
     2  O   -0.005350
     4  O    0.005350
 Electronic spatial extent (au):  <R**2>=            160.4475
 Charge=              0.0000 electrons
 Dipole moment (field-independent basis, Debye):
    X=              2.7492    Y=              2.5532    Z=             -0.0000  Tot=              3.7519
 Quadrupole moment (field-independent basis, Debye-Ang):
   XX=            -12.6134   YY=            -11.2768   ZZ=            -11.8309
   XY=             -0.7414   XZ=             -0.0000   YZ=             -0.0000
 Traceless Quadrupole moment (field-independent basis, Debye-Ang):
   XX=             -0.7063   YY=              0.6302   ZZ=              0.0761
   XY=             -0.7414   XZ=             -0.0000   YZ=             -0.0000
 Octapole moment (field-independent basis, Debye-Ang**2):
  XXX=              2.2480  YYY=              9.8421  ZZZ=             -0.0000  XYY=              9.2733
  XXY=             -2.5322  XXZ=             -0.0000  XZZ=              0.9866  YZZ=              5.2547
  YYZ=             -0.0000  XYZ=             -0.0000
 Hexadecapole moment (field-independent basis, Debye-Ang**3):
 XXXX=            -14.5621 YYYY=           -143.1459 ZZZZ=            -13.7011 XXXY=             -1.8326
 XXXZ=             -0.0000 YYYX=             -1.5813 YYYZ=             -0.0000 ZZZX=             -0.0000
 ZZZY=             -0.0000 XXYY=            -25.5920 XXZZ=             -5.0341 YYZZ=            -23.1585
 XXYZ=             -0.0000 YYXZ=             -0.0000 ZZXY=              1.2631
 N-N= 4.143349911536D+01 E-N=-4.437132818317D+02  KE= 1.536782087020D+02
 Symmetry A'   KE= 1.455096819901D+02
 Symmetry A"   KE= 8.168526711822D+00
 Calling FoFJK, ICntrl=  10002127 FMM=F ISym2X=1 I1Cent= 0 IOpClX= 0 NMat=1 NMatS=1 NMatT=0.
 ***** Axes restored to original set *****
 -------------------------------------------------------------------
 Center     Atomic                   Forces (Hartrees/Bohr)
 Number     Number              X              Y              Z
 -------------------------------------------------------------------
      1        1           0.018222856   -0.000000000   -1.982570402
      2        8          -0.028094981    0.000000000    1.980438891
      3        1           0.010461935   -0.000000000    0.008035455
      4        8          -0.002275924   -0.000000000   -0.005085921
      5        1           0.000843057    0.000718757   -0.000409012
      6        1           0.000843057   -0.000718757   -0.000409012
 -------------------------------------------------------------------
 Cartesian Forces:  Max     1.982570402 RMS     0.660557545
 -----------------------------------------------------------------------------------------------
                       Internal Coordinate Forces (Hartree/Bohr or radian)
  Cent   Atom   N1       Length/X         N2         Alpha/Y        N3         Beta/Z          J
 -----------------------------------------------------------------------------------------------
      1  H 
      2  O        1   1.982570(     1)
         X        2   0.000000(     2)      1  -0.001180(     7)
      3  H        2  -0.007848(     3)      1   0.018543(     8)      3   0.000000(    12)     0
      4  O        2   0.005788(     4)      3   0.001180(     9)      4  -0.000000(    13)     0
      5  H        5  -0.000699(     5)      4   0.001712(    10)      1  -0.000286(    14)     0
      6  H        5  -0.000699(     6)      4   0.001712(    11)      1   0.000286(    15)     0
 -----------------------------------------------------------------------------------------------
 Internal  Forces:  Max     1.982570402 RMS     0.511926695

 GradGradGradGradGradGradGradGradGradGradGradGradGradGradGradGradGradGrad
 Berny optimization.
 Search for a local minimum.
 Step number   1 out of a maximum of   24 on scan point     1 out of     9
 All quantities printed in internal units (Hartrees-Bohrs-Radians)
 Second derivative matrix not updated -- first step.
 The second derivative matrix:
                          r1        r2        r3        r4        r5
           r1           4.45150
           r2          -0.00000   0.54622
           r3           0.00000  -0.00061   0.03245
           r4           0.00000  -0.00000  -0.00000   0.54080
           r5          -0.00000   0.00000   0.00000  -0.00000   0.54080
           a1          -0.00000  -0.00190   0.00071  -0.00000  -0.00000
           a3          -0.00000   0.01087  -0.00408   0.00000   0.00000
           a4           0.00000   0.01087  -0.00408  -0.00000  -0.00000
           t1          -0.00000   0.00000   0.00000   0.00000   0.00000
           t2          -0.00000   0.00198  -0.00074   0.00000   0.00000
           t3          -0.00000  -0.00198   0.00074   0.00000   0.00000
           rX           0.00000  -0.00000   0.00000  -0.00000   0.00000
           aX          -0.00000   0.00000   0.00000  -0.00000  -0.00000
           tX           0.00000  -0.00000  -0.00000  -0.00000  -0.00000
                          a1        a3        a4        t1        t2
           a1           0.32222
           a3          -0.01272   0.18050
           a4          -0.01272   0.03463   0.18050
           t1           0.00000   0.15123  -0.15123   2.85562
           t2          -0.00231   0.09984   0.05741   0.05436   0.13313
           t3           0.00231  -0.05741  -0.09984   0.05436  -0.11788
           rX          -0.00000   0.00000  -0.00000   0.00000  -0.00000
           aX           0.00000   0.00000  -0.00000   0.00000   0.00000
           tX          -0.00000  -0.03850   0.03850  -0.72707  -0.01384
                          t3        rX        aX        tX
           t3           0.13313
           rX           0.00000   0.00000
           aX           0.00000  -0.00000   0.00000
           tX          -0.01384  -0.00000  -0.00000   0.18512
 ITU=  0
     Eigenvalues ---    0.00268   0.07429   0.15844   0.31983   0.39424
     Eigenvalues --- 1000.000001000.000001000.000001000.000001000.00000
     Eigenvalues --- 1000.000001000.000001000.000001000.00000
 RFO step:  Lambda=-1.17294742D-03 EMin= 2.67824269D-03
 Linear search not attempted -- first point.
 Variable       Old X    -DE/DX   Delta X   Delta X   Delta X     New X
                                 (Linear)    (Quad)   (Total)
    r1        1.08232   1.98257   0.00000   0.00000   0.00000   1.08232
    r2        1.82315  -0.00785   0.00000   0.00000   0.00000   1.82315
    r3        4.86056   0.00579   0.00000   0.00000   0.00000   4.86056
    r4        1.82659  -0.00070   0.00000   0.00000   0.00000   1.82659
    r5        1.82659  -0.00070   0.00000   0.00000   0.00000   1.82659
    a1        1.82011   0.01854   0.00000   0.05884   0.05884   1.87895
    a3        1.90660   0.00171   0.00000   0.02159   0.02159   1.92819
    a4        1.90660   0.00171   0.00000   0.02159   0.02159   1.92819
    t1        3.14159   0.00000   0.00000   0.00000   0.00000   3.14159
    t2        2.15224  -0.00029   0.00000  -0.01406  -0.01406   2.13819
    t3        4.13094   0.00029   0.00000   0.01406   0.01406   4.14500
    rX        3.77945   0.00000   0.00000   0.00000   0.00000   3.77945
    aX        1.57080  -0.00000   0.00000   0.00000   0.00000   1.57080
    tX        3.14159  -0.00000   0.00000   0.00000   0.00000   3.14159
         Item               Value     Threshold  Converged?
 Maximum Force            0.018543     0.000450     NO 
 RMS     Force            0.008365     0.000300     NO 
 Maximum Displacement     0.058836     0.001800     NO 
 RMS     Displacement     0.018496     0.001200     NO 
 Predicted change in Energy=-5.892824D-04
 GradGradGradGradGradGradGradGradGradGradGradGradGradGradGradGradGradGrad

 ---------------------------------------------------------------------------------------------------
                            Z-MATRIX (ANGSTROMS AND DEGREES)
   CD    Cent   Atom    N1       Length/X        N2       Alpha/Y        N3        Beta/Z          J
 ---------------------------------------------------------------------------------------------------
      1      1  H 
      2      2  O        1   0.572740(     1)
      3         X        2   2.000000(     2)      1   90.000(     7)
      4      3  H        2   0.964770(     3)      1  107.656(     8)      3  180.000(    12)      0
      5      4  O        2   2.572100(     4)      3   90.000(     9)      4  180.000(    13)      0
      6      5  H        5   0.966590(     5)      4  110.477(    10)      1  122.509(    14)      0
      7      6  H        5   0.966590(     6)      4  110.477(    11)      1  237.491(    15)      0
 ---------------------------------------------------------------------------------------------------
                         Z-Matrix orientation:                         
 ---------------------------------------------------------------------
 Center     Atomic      Atomic             Coordinates (Angstroms)
 Number     Number       Type             X           Y           Z
 ---------------------------------------------------------------------
      1          1           0        0.000000    0.000000    0.000000
      2          8           0        0.000000    0.000000    0.572740
      3         -1           0        2.000000    0.000000    0.572740
      4          1           0       -0.919326    0.000000    0.865350
      5          8           0        0.000000   -0.000000   -1.999360
      6          1           0       -0.360051   -0.763624   -2.470039
      7          1           0       -0.360051    0.763624   -2.470039
 ---------------------------------------------------------------------
                    Distance matrix (angstroms):
                    1          2          3          4          5
     1  H    0.000000
     2  O    0.572740   0.000000
     3  X    2.080392   2.000000   0.000000
     4  H    1.262534   0.964770   2.933954   0.000000
     5  O    1.999360   2.572100   3.258174   3.008608   0.000000
     6  H    2.610335   3.157730   3.925744   3.467092   0.966590
     7  H    2.610335   3.157730   3.925744   3.467092   0.966590
                    6          7
     6  H    0.000000
     7  H    1.527248   0.000000
 Stoichiometry    H4O2
 Framework group  CS[SG(H2O2),X(H2)]
 Deg. of freedom     8
 Full point group                 CS      NOp   2
 Largest Abelian subgroup         CS      NOp   2
 Largest concise Abelian subgroup CS      NOp   2
                         Standard orientation:                         
 ---------------------------------------------------------------------
 Center     Atomic      Atomic             Coordinates (Angstroms)
 Number     Number       Type             X           Y           Z
 ---------------------------------------------------------------------
      1          1           0       -0.081971   -0.774384    0.000000
      2          8           0       -0.081971   -1.347124    0.000000
      3          1           0        0.837355   -1.639735    0.000000
      4          8           0       -0.081971    1.224976   -0.000000
      5          1           0        0.278079    1.695654    0.763624
      6          1           0        0.278079    1.695654   -0.763624
 ---------------------------------------------------------------------
 Rotational constants (GHZ):    228.5045407      8.0029699      7.9853857
 Standard basis: Aug-CC-pVDZ (5D, 7F)
 There are    59 symmetry adapted cartesian basis functions of A'  symmetry.
 There are    27 symmetry adapted cartesian basis functions of A"  symmetry.
 There are    55 symmetry adapted basis functions of A'  symmetry.
 There are    27 symmetry adapted basis functions of A"  symmetry.
    82 basis functions,   130 primitive gaussians,    86 cartesian basis functions
    10 alpha electrons       10 beta electrons
       nuclear repulsion energy        41.3883359761 Hartrees.
 NAtoms=    6 NActive=    6 NUniq=    5 SFac= 1.44D+00 NAtFMM=   60 NAOKFM=F Big=F
 Integral buffers will be    131072 words long.
 Raffenetti 1 integral format.
 Two-electron integral symmetry is turned on.
 One-electron integrals computed using PRISM.
 NBasis=    82 RedAO= T EigKep=  1.18D-03  NBF=    55    27
 NBsUse=    82 1.00D-06 EigRej= -1.00D+00 NBFU=    55    27
 Initial guess from the checkpoint file:  "water_dimer_OH_scan.chk"
 B after Tr=    -0.000000   -0.000000    0.000000
         Rot=    1.000000    0.000000    0.000000    0.000202 Ang=   0.02 deg.
 Initial guess orbital symmetries:
       Occupied  (A') (A') (A') (A') (A') (A") (A') (A') (A') (A")
       Virtual   (A') (A') (A') (A') (A') (A') (A') (A') (A') (A')
                 (A') (A') (A') (A') (A') (A') (A') (A') (A') (A')
                 (A') (A') (A') (A') (A') (A') (A') (A') (A') (A')
                 (A') (A') (A') (A') (A') (A') (A') (A') (A') (A')
                 (A') (A') (A') (A') (A') (A') (A') (A") (A") (A")
                 (A") (A") (A") (A") (A") (A") (A") (A") (A") (A")
                 (A") (A") (A") (A") (A") (A") (A") (A") (A") (A")
                 (A") (A")
 ExpMin= 2.97D-02 ExpMax= 1.17D+04 ExpMxC= 4.01D+02 IAcc=3 IRadAn=         5 AccDes= 0.00D+00
 Harris functional with IExCor=  205 and IRadAn=       5 diagonalized for initial guess.
 HarFok:  IExCor=  205 AccDes= 0.00D+00 IRadAn=         5 IDoV= 1 UseB2=F ITyADJ=14
 ICtDFT=  3500011 ScaDFX=  1.000000  1.000000  1.000000  1.000000
 FoFCou: FMM=F IPFlag=           0 FMFlag=      100000 FMFlg1=           0
         NFxFlg=           0 DoJE=T BraDBF=F KetDBF=T FulRan=T
         wScrn=  0.000000 ICntrl=     500 IOpCl=  0 I1Cent=   200000004 NGrid=           0
         NMat0=    1 NMatS0=      1 NMatT0=    0 NMatD0=    1 NMtDS0=    0 NMtDT0=    0
 Petite list used in FoFCou.
 Keep R1 ints in memory in symmetry-blocked form, NReq=8785626.
 Requested convergence on RMS density matrix=1.00D-08 within 128 cycles.
 Requested convergence on MAX density matrix=1.00D-06.
 Requested convergence on             energy=1.00D-06.
 No special actions if energy rises.
 SCF Done:  E(RHF) =  -151.659180074     A.U. after   10 cycles
            NFock= 10  Conv=0.32D-08     -V/T= 1.9881
 ExpMin= 2.97D-02 ExpMax= 1.17D+04 ExpMxC= 4.01D+02 IAcc=3 IRadAn=         5 AccDes= 0.00D+00
 HarFok:  IExCor=  205 AccDes= 0.00D+00 IRadAn=         5 IDoV=-2 UseB2=F ITyADJ=14
 ICtDFT= 12500011 ScaDFX=  1.000000  1.000000  1.000000  1.000000
 Range of M.O.s used for correlation:     3    82
 NBasis=    82 NAE=    10 NBE=    10 NFC=     2 NFV=     0
 NROrb=     80 NOA=     8 NOB=     8 NVA=    72 NVB=    72

 **** Warning!!: The largest alpha MO coefficient is  0.10739535D+02

 Fully direct method using O(ONN) memory.
 JobTyp=1 Pass  1:  I=   3 to  10 NPSUse=  8 ParTrn=T ParDer=T DoDerP=T.
 Spin components of T(2) and E(2):
     alpha-alpha T2 =       0.1417756277D-01 E2=     -0.5436231738D-01
     alpha-beta  T2 =       0.7976461424D-01 E2=     -0.3162182325D+00
     beta-beta   T2 =       0.1417756277D-01 E2=     -0.5436231738D-01
 ANorm=    0.1052672665D+01
 E2 =    -0.4249428673D+00 EUMP2 =    -0.15208412294080D+03
          IDoAtm=111111
          Differentiating once with respect to electric field.
                with respect to dipole field.
          Differentiating once with respect to nuclear coordinates.
 Keep R1 ints in memory in symmetry-blocked form, NReq=8744513.
          There are     1 degrees of freedom in the 1st order CPHF.  IDoFFX=0 NUNeed=     1.
 LinEq1:  Iter=  0 NonCon=     1 RMS=5.42D-03 Max=5.14D-02 NDo=     1
 AX will form     1 AO Fock derivatives at one time.
 LinEq1:  Iter=  1 NonCon=     1 RMS=1.23D-03 Max=9.28D-03 NDo=     1
 LinEq1:  Iter=  2 NonCon=     1 RMS=4.09D-04 Max=2.83D-03 NDo=     1
 LinEq1:  Iter=  3 NonCon=     1 RMS=7.54D-05 Max=6.01D-04 NDo=     1
 LinEq1:  Iter=  4 NonCon=     1 RMS=2.83D-05 Max=2.04D-04 NDo=     1
 LinEq1:  Iter=  5 NonCon=     1 RMS=5.41D-06 Max=2.95D-05 NDo=     1
 LinEq1:  Iter=  6 NonCon=     1 RMS=1.11D-06 Max=5.91D-06 NDo=     1
 LinEq1:  Iter=  7 NonCon=     1 RMS=1.56D-07 Max=7.92D-07 NDo=     1
 LinEq1:  Iter=  8 NonCon=     1 RMS=2.10D-08 Max=1.37D-07 NDo=     1
 LinEq1:  Iter=  9 NonCon=     1 RMS=3.38D-09 Max=2.05D-08 NDo=     1
 LinEq1:  Iter= 10 NonCon=     1 RMS=5.87D-10 Max=3.14D-09 NDo=     1
 LinEq1:  Iter= 11 NonCon=     0 RMS=8.70D-11 Max=7.71D-10 NDo=     1
 Linear equations converged to 1.000D-10 1.000D-09 after    11 iterations.
 End of Minotr F.D. properties file   721 does not exist.
 End of Minotr F.D. properties file   722 does not exist.
 End of Minotr F.D. properties file   788 does not exist.
 Calling FoFJK, ICntrl=  10002127 FMM=F ISym2X=1 I1Cent= 0 IOpClX= 0 NMat=1 NMatS=1 NMatT=0.
 ***** Axes restored to original set *****
 -------------------------------------------------------------------
 Center     Atomic                   Forces (Hartrees/Bohr)
 Number     Number              X              Y              Z
 -------------------------------------------------------------------
      1        1           0.008567472    0.000000000   -1.981399751
      2        8          -0.020179356   -0.000000000    1.986063450
      3        1           0.012099849   -0.000000000    0.001189669
      4        8          -0.001920414    0.000000000   -0.004997471
      5        1           0.000716224    0.001013120   -0.000427949
      6        1           0.000716224   -0.001013120   -0.000427949
 -------------------------------------------------------------------
 Cartesian Forces:  Max     1.986063450 RMS     0.661272071
 -----------------------------------------------------------------------------------------------
                       Internal Coordinate Forces (Hartree/Bohr or radian)
  Cent   Atom   N1       Length/X         N2         Alpha/Y        N3         Beta/Z          J
 -----------------------------------------------------------------------------------------------
      1  H 
      2  O        1   1.981400(     1)
         X        2   0.000000(     2)      1  -0.000861(     7)
      3  H        2  -0.010903(     3)      1   0.008412(     8)      3   0.000000(    12)     0
      4  O        2   0.005754(     4)      3   0.000861(     9)      4  -0.000000(    13)     0
      5  H        5  -0.000859(     5)      4   0.001807(    10)      1   0.000136(    14)     0
      6  H        5  -0.000859(     6)      4   0.001807(    11)      1  -0.000136(    15)     0
 -----------------------------------------------------------------------------------------------
 Internal  Forces:  Max     1.981399751 RMS     0.511610349

 GradGradGradGradGradGradGradGradGradGradGradGradGradGradGradGradGradGrad
 Berny optimization.
 Search for a local minimum.
 Step number   2 out of a maximum of   24 on scan point     1 out of     9
 All quantities printed in internal units (Hartrees-Bohrs-Radians)
 Update second derivatives using D2CorN and points    1    2
 DE= -8.68D-04 DEPred=-5.89D-04 R= 1.47D+00
 TightC=F SS=  1.41D+00  RLast= 6.92D-02 DXNew= 5.0454D-01 2.0761D-01
 Trust test= 1.47D+00 RLast= 6.92D-02 DXMaxT set to 3.00D-01
 The second derivative matrix:
                          r1        r2        r3        r4        r5
           r1           4.45150
           r2          -0.00000   0.54622
           r3           0.00000  -0.00061   0.03245
           r4           0.00000  -0.00000  -0.00000   0.54080
           r5          -0.00000   0.00000   0.00000  -0.00000   0.54080
           a1           0.00719   0.01501   0.00162   0.00098   0.00098
           a3           0.00264   0.01708  -0.00374   0.00036   0.00036
           a4           0.00264   0.01708  -0.00374   0.00036   0.00036
           t1          -0.00000   0.00000   0.00000   0.00000   0.00000
           t2          -0.00172  -0.00206  -0.00096  -0.00023  -0.00023
           t3           0.00172   0.00206   0.00096   0.00023   0.00023
           rX           0.00000  -0.00000   0.00000  -0.00000   0.00000
           aX          -0.00000   0.00000   0.00000  -0.00000  -0.00000
           tX           0.00000  -0.00000  -0.00000  -0.00000  -0.00000
                          a1        a3        a4        t1        t2
           a1           0.21972
           a3          -0.04247   0.17246
           a4          -0.04247   0.02660   0.17246
           t1           0.00000   0.15123  -0.15123   2.85562
           t2           0.00899   0.10211   0.05968   0.05436   0.13358
           t3          -0.00899  -0.05968  -0.10211   0.05436  -0.11833
           rX          -0.00000  -0.00000  -0.00000   0.00000   0.00000
           aX          -0.00000  -0.00000  -0.00000   0.00000   0.00000
           tX          -0.00000  -0.03850   0.03850  -0.72707  -0.01384
                          t3        rX        aX        tX
           t3           0.13358
           rX           0.00000   0.00000
           aX          -0.00000  -0.00000   0.00000
           tX          -0.01384  -0.00000  -0.00000   0.18512
 ITU=  1  0
     Eigenvalues ---    0.00268   0.04466   0.15844   0.23148   0.39455
     Eigenvalues --- 1000.000001000.000001000.000001000.000001000.00000
     Eigenvalues --- 1000.000001000.000001000.000001000.00000
 RFO step:  Lambda=-7.10996148D-05 EMin= 2.67824269D-03
 Quartic linear search produced a step of  1.01005.
 Variable       Old X    -DE/DX   Delta X   Delta X   Delta X     New X
                                 (Linear)    (Quad)   (Total)
    r1        1.08232   1.98140   0.00000   0.00000   0.00000   1.08232
    r2        1.82315  -0.01090   0.00000   0.00000   0.00000   1.82315
    r3        4.86056   0.00575   0.00000   0.00000   0.00000   4.86056
    r4        1.82659  -0.00086   0.00000   0.00000   0.00000   1.82659
    r5        1.82659  -0.00086   0.00000   0.00000   0.00000   1.82659
    a1        1.87895   0.00841   0.05943   0.00278   0.06221   1.94116
    a3        1.92819   0.00181   0.02181   0.02033   0.04214   1.97033
    a4        1.92819   0.00181   0.02181   0.02033   0.04214   1.97033
    t1        3.14159   0.00000   0.00000   0.00000   0.00000   3.14159
    t2        2.13819   0.00014  -0.01420  -0.01139  -0.02559   2.11259
    t3        4.14500  -0.00014   0.01420   0.01139   0.02559   4.17059
    rX        3.77945   0.00000   0.00000   0.00000   0.00000   3.77945
    aX        1.57080   0.00000   0.00000   0.00000   0.00000   1.57080
    tX        3.14159  -0.00000   0.00000   0.00000   0.00000   3.14159
         Item               Value     Threshold  Converged?
 Maximum Force            0.008412     0.000450     NO 
 RMS     Force            0.003933     0.000300     NO 
 Maximum Displacement     0.062211     0.001800     NO 
 RMS     Displacement     0.024974     0.001200     NO 
 Predicted change in Energy=-3.252338D-04
 GradGradGradGradGradGradGradGradGradGradGradGradGradGradGradGradGradGrad

 ---------------------------------------------------------------------------------------------------
                            Z-MATRIX (ANGSTROMS AND DEGREES)
   CD    Cent   Atom    N1       Length/X        N2       Alpha/Y        N3        Beta/Z          J
 ---------------------------------------------------------------------------------------------------
      1      1  H 
      2      2  O        1   0.572740(     1)
      3         X        2   2.000000(     2)      1   90.000(     7)
      4      3  H        2   0.964770(     3)      1  111.220(     8)      3  180.000(    12)      0
      5      4  O        2   2.572100(     4)      3   90.000(     9)      4  180.000(    13)      0
      6      5  H        5   0.966590(     5)      4  112.892(    10)      1  121.043(    14)      0
      7      6  H        5   0.966590(     6)      4  112.892(    11)      1  238.957(    15)      0
 ---------------------------------------------------------------------------------------------------
                         Z-Matrix orientation:                         
 ---------------------------------------------------------------------
 Center     Atomic      Atomic             Coordinates (Angstroms)
 Number     Number       Type             X           Y           Z
 ---------------------------------------------------------------------
      1          1           0        0.000000    0.000000    0.000000
      2          8           0        0.000000    0.000000    0.572740
      3         -1           0        2.000000    0.000000    0.572740
      4          1           0       -0.899356    0.000000    0.921939
      5          8           0        0.000000   -0.000000   -1.999360
      6          1           0       -0.328235   -0.762933   -2.493820
      7          1           0       -0.328235    0.762933   -2.493820
 ---------------------------------------------------------------------
                    Distance matrix (angstroms):
                    1          2          3          4          5
     1  H    0.000000
     2  O    0.572740   0.000000
     3  X    2.080392   2.000000   0.000000
     4  H    1.287949   0.964770   2.920309   0.000000
     5  O    1.999360   2.572100   3.258174   3.056604   0.000000
     6  H    2.628487   3.177042   3.925116   3.546217   0.966590
     7  H    2.628487   3.177042   3.925116   3.546217   0.966590
                    6          7
     6  H    0.000000
     7  H    1.525867   0.000000
 Stoichiometry    H4O2
 Framework group  CS[SG(H2O2),X(H2)]
 Deg. of freedom     8
 Full point group                 CS      NOp   2
 Largest Abelian subgroup         CS      NOp   2
 Largest concise Abelian subgroup CS      NOp   2
                         Standard orientation:                         
 ---------------------------------------------------------------------
 Center     Atomic      Atomic             Coordinates (Angstroms)
 Number     Number       Type             X           Y           Z
 ---------------------------------------------------------------------
      1          1           0       -0.077791   -0.773933   -0.000000
      2          8           0       -0.077791   -1.346673   -0.000000
      3          1           0        0.821565   -1.695872   -0.000000
      4          8           0       -0.077791    1.225427    0.000000
      5          1           0        0.250444    1.719887    0.762933
      6          1           0        0.250444    1.719887   -0.762933
 ---------------------------------------------------------------------
 Rotational constants (GHZ):    236.6842665      7.9676089      7.9411619
 Standard basis: Aug-CC-pVDZ (5D, 7F)
 There are    59 symmetry adapted cartesian basis functions of A'  symmetry.
 There are    27 symmetry adapted cartesian basis functions of A"  symmetry.
 There are    55 symmetry adapted basis functions of A'  symmetry.
 There are    27 symmetry adapted basis functions of A"  symmetry.
    82 basis functions,   130 primitive gaussians,    86 cartesian basis functions
    10 alpha electrons       10 beta electrons
       nuclear repulsion energy        41.3323744191 Hartrees.
 NAtoms=    6 NActive=    6 NUniq=    5 SFac= 1.44D+00 NAtFMM=   60 NAOKFM=F Big=F
 Integral buffers will be    131072 words long.
 Raffenetti 1 integral format.
 Two-electron integral symmetry is turned on.
 One-electron integrals computed using PRISM.
 NBasis=    82 RedAO= T EigKep=  1.23D-03  NBF=    55    27
 NBsUse=    82 1.00D-06 EigRej= -1.00D+00 NBFU=    55    27
 Initial guess from the checkpoint file:  "water_dimer_OH_scan.chk"
 B after Tr=    -0.000000   -0.000000    0.000000
         Rot=    1.000000   -0.000000   -0.000000   -0.000559 Ang=  -0.06 deg.
 Initial guess orbital symmetries:
       Occupied  (A') (A') (A') (A') (A') (A") (A') (A') (A') (A")
       Virtual   (A') (A') (A') (A') (A') (A') (A') (A') (A') (A')
                 (A') (A') (A') (A') (A') (A') (A') (A') (A') (A')
                 (A') (A') (A') (A') (A') (A') (A') (A') (A') (A')
                 (A') (A') (A') (A') (A') (A') (A') (A') (A') (A')
                 (A') (A') (A') (A') (A') (A') (A') (A") (A") (A")
                 (A") (A") (A") (A") (A") (A") (A") (A") (A") (A")
                 (A") (A") (A") (A") (A") (A") (A") (A") (A") (A")
                 (A") (A")
 ExpMin= 2.97D-02 ExpMax= 1.17D+04 ExpMxC= 4.01D+02 IAcc=3 IRadAn=         5 AccDes= 0.00D+00
 Harris functional with IExCor=  205 and IRadAn=       5 diagonalized for initial guess.
 HarFok:  IExCor=  205 AccDes= 0.00D+00 IRadAn=         5 IDoV= 1 UseB2=F ITyADJ=14
 ICtDFT=  3500011 ScaDFX=  1.000000  1.000000  1.000000  1.000000
 FoFCou: FMM=F IPFlag=           0 FMFlag=      100000 FMFlg1=           0
         NFxFlg=           0 DoJE=T BraDBF=F KetDBF=T FulRan=T
         wScrn=  0.000000 ICntrl=     500 IOpCl=  0 I1Cent=   200000004 NGrid=           0
         NMat0=    1 NMatS0=      1 NMatT0=    0 NMatD0=    1 NMtDS0=    0 NMtDT0=    0
 Petite list used in FoFCou.
 Keep R1 ints in memory in symmetry-blocked form, NReq=8785626.
 Requested convergence on RMS density matrix=1.00D-08 within 128 cycles.
 Requested convergence on MAX density matrix=1.00D-06.
 Requested convergence on             energy=1.00D-06.
 No special actions if energy rises.
 SCF Done:  E(RHF) =  -151.659499893     A.U. after   10 cycles
            NFock= 10  Conv=0.44D-08     -V/T= 1.9881
 ExpMin= 2.97D-02 ExpMax= 1.17D+04 ExpMxC= 4.01D+02 IAcc=3 IRadAn=         5 AccDes= 0.00D+00
 HarFok:  IExCor=  205 AccDes= 0.00D+00 IRadAn=         5 IDoV=-2 UseB2=F ITyADJ=14
 ICtDFT= 12500011 ScaDFX=  1.000000  1.000000  1.000000  1.000000
 Range of M.O.s used for correlation:     3    82
 NBasis=    82 NAE=    10 NBE=    10 NFC=     2 NFV=     0
 NROrb=     80 NOA=     8 NOB=     8 NVA=    72 NVB=    72

 **** Warning!!: The largest alpha MO coefficient is  0.10902553D+02

 Fully direct method using O(ONN) memory.
 JobTyp=1 Pass  1:  I=   3 to  10 NPSUse=  8 ParTrn=T ParDer=T DoDerP=T.
 Spin components of T(2) and E(2):
     alpha-alpha T2 =       0.1418409514D-01 E2=     -0.5437724362D-01
     alpha-beta  T2 =       0.7976167777D-01 E2=     -0.3162128097D+00
     beta-beta   T2 =       0.1418409514D-01 E2=     -0.5437724362D-01
 ANorm=    0.1052677476D+01
 E2 =    -0.4249672970D+00 EUMP2 =    -0.15208446718999D+03
          IDoAtm=111111
          Differentiating once with respect to electric field.
                with respect to dipole field.
          Differentiating once with respect to nuclear coordinates.
 Keep R1 ints in memory in symmetry-blocked form, NReq=8744513.
          There are     1 degrees of freedom in the 1st order CPHF.  IDoFFX=0 NUNeed=     1.
 LinEq1:  Iter=  0 NonCon=     1 RMS=5.42D-03 Max=5.15D-02 NDo=     1
 AX will form     1 AO Fock derivatives at one time.
 LinEq1:  Iter=  1 NonCon=     1 RMS=1.23D-03 Max=9.31D-03 NDo=     1
 LinEq1:  Iter=  2 NonCon=     1 RMS=4.08D-04 Max=2.95D-03 NDo=     1
 LinEq1:  Iter=  3 NonCon=     1 RMS=7.56D-05 Max=6.09D-04 NDo=     1
 LinEq1:  Iter=  4 NonCon=     1 RMS=2.84D-05 Max=1.98D-04 NDo=     1
 LinEq1:  Iter=  5 NonCon=     1 RMS=5.45D-06 Max=2.96D-05 NDo=     1
 LinEq1:  Iter=  6 NonCon=     1 RMS=1.12D-06 Max=6.05D-06 NDo=     1
 LinEq1:  Iter=  7 NonCon=     1 RMS=1.56D-07 Max=8.20D-07 NDo=     1
 LinEq1:  Iter=  8 NonCon=     1 RMS=2.08D-08 Max=1.34D-07 NDo=     1
 LinEq1:  Iter=  9 NonCon=     1 RMS=3.26D-09 Max=2.01D-08 NDo=     1
 LinEq1:  Iter= 10 NonCon=     1 RMS=5.61D-10 Max=3.01D-09 NDo=     1
 LinEq1:  Iter= 11 NonCon=     0 RMS=8.09D-11 Max=7.03D-10 NDo=     1
 Linear equations converged to 1.000D-10 1.000D-09 after    11 iterations.
 End of Minotr F.D. properties file   721 does not exist.
 End of Minotr F.D. properties file   722 does not exist.
 End of Minotr F.D. properties file   788 does not exist.
 Calling FoFJK, ICntrl=  10002127 FMM=F ISym2X=1 I1Cent= 0 IOpClX= 0 NMat=1 NMatS=1 NMatT=0.
 ***** Axes restored to original set *****
 -------------------------------------------------------------------
 Center     Atomic                   Forces (Hartrees/Bohr)
 Number     Number              X              Y              Z
 -------------------------------------------------------------------
      1        1          -0.001006238    0.000000000   -1.980239517
      2        8          -0.011523043   -0.000000000    1.991748094
      3        1           0.012903360   -0.000000000   -0.005787770
      4        8          -0.001868391    0.000000000   -0.005415624
      5        1           0.000747156    0.000878021   -0.000152591
      6        1           0.000747156   -0.000878021   -0.000152591
 -------------------------------------------------------------------
 Cartesian Forces:  Max     1.991748094 RMS     0.662016210
 -----------------------------------------------------------------------------------------------
                       Internal Coordinate Forces (Hartree/Bohr or radian)
  Cent   Atom   N1       Length/X         N2         Alpha/Y        N3         Beta/Z          J
 -----------------------------------------------------------------------------------------------
      1  H 
      2  O        1   1.980240(     1)
         X        2  -0.000000(     2)      1  -0.000543(     7)
      3  H        2  -0.013908(     3)      1  -0.001632(     8)      3   0.000000(    12)     0
      4  O        2   0.005640(     4)      3   0.000543(     9)      4   0.000000(    13)     0
      5  H        5  -0.000869(     5)      4   0.001395(    10)      1  -0.000203(    14)     0
      6  H        5  -0.000869(     6)      4   0.001395(    11)      1   0.000203(    15)     0
 -----------------------------------------------------------------------------------------------
 Internal  Forces:  Max     1.980239517 RMS     0.511310899

 GradGradGradGradGradGradGradGradGradGradGradGradGradGradGradGradGradGrad
 Berny optimization.
 Search for a local minimum.
 Step number   3 out of a maximum of   24 on scan point     1 out of     9
 All quantities printed in internal units (Hartrees-Bohrs-Radians)
 Update second derivatives using D2CorN and points    1    2    3
 DE= -3.44D-04 DEPred=-3.25D-04 R= 1.06D+00
 TightC=F SS=  1.41D+00  RLast= 9.34D-02 DXNew= 5.0454D-01 2.8033D-01
 Trust test= 1.06D+00 RLast= 9.34D-02 DXMaxT set to 3.00D-01
 The second derivative matrix:
                          r1        r2        r3        r4        r5
           r1           4.45150
           r2          -0.00000   0.54622
           r3           0.00000  -0.00061   0.03245
           r4           0.00000  -0.00000  -0.00000   0.54080
           r5          -0.00000   0.00000   0.00000  -0.00000   0.54080
           a1           0.00992   0.01938   0.00308   0.00063   0.00063
           a3           0.00414   0.01936  -0.00288   0.00013   0.00013
           a4           0.00414   0.01936  -0.00288   0.00013   0.00013
           t1          -0.00000   0.00000   0.00000   0.00000   0.00000
           t2          -0.00265  -0.00349  -0.00149  -0.00009  -0.00009
           t3           0.00265   0.00349   0.00149   0.00009   0.00009
           rX           0.00000  -0.00000   0.00000  -0.00000   0.00000
           aX          -0.00000   0.00000   0.00000  -0.00000  -0.00000
           tX           0.00000  -0.00000  -0.00000  -0.00000  -0.00000
                          a1        a3        a4        t1        t2
           a1           0.22208
           a3          -0.04684   0.16589
           a4          -0.04684   0.02003   0.16589
           t1          -0.00000   0.15123  -0.15123   2.85562
           t2           0.00436   0.10188   0.05944   0.05436   0.13636
           t3          -0.00436  -0.05944  -0.10188   0.05436  -0.12111
           rX           0.00000   0.00000   0.00000   0.00000  -0.00000
           aX          -0.00000  -0.00000  -0.00000   0.00000   0.00000
           tX          -0.00000  -0.03850   0.03850  -0.72707  -0.01384
                          t3        rX        aX        tX
           t3           0.13636
           rX           0.00000   0.00000
           aX          -0.00000  -0.00000   0.00000
           tX          -0.01384  -0.00000  -0.00000   0.18512
 ITU=  1  1  0
     Eigenvalues ---    0.00268   0.03924   0.15844   0.23111   0.39513
     Eigenvalues --- 1000.000001000.000001000.000001000.000001000.00000
     Eigenvalues --- 1000.000001000.000001000.000001000.00000
 RFO step:  Lambda=-5.51937015D-05 EMin= 2.67824269D-03
 Quartic linear search produced a step of  0.04249.
 Variable       Old X    -DE/DX   Delta X   Delta X   Delta X     New X
                                 (Linear)    (Quad)   (Total)
    r1        1.08232   1.98024   0.00000   0.00000   0.00000   1.08232
    r2        1.82315  -0.01391   0.00000   0.00000   0.00000   1.82315
    r3        4.86056   0.00564   0.00000   0.00000   0.00000   4.86056
    r4        1.82659  -0.00087   0.00000   0.00000   0.00000   1.82659
    r5        1.82659  -0.00087   0.00000   0.00000   0.00000   1.82659
    a1        1.94116  -0.00163   0.00264  -0.00165   0.00099   1.94215
    a3        1.97033   0.00140   0.00179   0.01693   0.01872   1.98905
    a4        1.97033   0.00140   0.00179   0.01693   0.01872   1.98905
    t1        3.14159   0.00000   0.00000   0.00000   0.00000   3.14159
    t2        2.11259  -0.00020  -0.00109  -0.01143  -0.01252   2.10008
    t3        4.17059   0.00020   0.00109   0.01143   0.01252   4.18311
    rX        3.77945  -0.00000   0.00000   0.00000   0.00000   3.77945
    aX        1.57080   0.00000   0.00000   0.00000   0.00000   1.57080
    tX        3.14159   0.00000   0.00000   0.00000   0.00000   3.14159
         Item               Value     Threshold  Converged?
 Maximum Force            0.001632     0.000450     NO 
 RMS     Force            0.001152     0.000300     NO 
 Maximum Displacement     0.018716     0.001800     NO 
 RMS     Displacement     0.008514     0.001200     NO 
 Predicted change in Energy=-2.753479D-05
 GradGradGradGradGradGradGradGradGradGradGradGradGradGradGradGradGradGrad

 ---------------------------------------------------------------------------------------------------
                            Z-MATRIX (ANGSTROMS AND DEGREES)
   CD    Cent   Atom    N1       Length/X        N2       Alpha/Y        N3        Beta/Z          J
 ---------------------------------------------------------------------------------------------------
      1      1  H 
      2      2  O        1   0.572740(     1)
      3         X        2   2.000000(     2)      1   90.000(     7)
      4      3  H        2   0.964770(     3)      1  111.277(     8)      3  180.000(    12)      0
      5      4  O        2   2.572100(     4)      3   90.000(     9)      4  180.000(    13)      0
      6      5  H        5   0.966590(     5)      4  113.964(    10)      1  120.326(    14)      0
      7      6  H        5   0.966590(     6)      4  113.964(    11)      1  239.674(    15)      0
 ---------------------------------------------------------------------------------------------------
                         Z-Matrix orientation:                         
 ---------------------------------------------------------------------
 Center     Atomic      Atomic             Coordinates (Angstroms)
 Number     Number       Type             X           Y           Z
 ---------------------------------------------------------------------
      1          1           0        0.000000    0.000000    0.000000
      2          8           0        0.000000    0.000000    0.572740
      3         -1           0        2.000000    0.000000    0.572740
      4          1           0       -0.899010    0.000000    0.922829
      5          8           0        0.000000   -0.000000   -1.999360
      6          1           0       -0.310818   -0.762412   -2.505736
      7          1           0       -0.310818    0.762412   -2.505736
 ---------------------------------------------------------------------
                    Distance matrix (angstroms):
                    1          2          3          4          5
     1  H    0.000000
     2  O    0.572740   0.000000
     3  X    2.080392   2.000000   0.000000
     4  H    1.288345   0.964770   2.920072   0.000000
     5  O    1.999360   2.572100   3.258174   3.057353   0.000000
     6  H    2.637535   3.186674   3.924049   3.561221   0.966590
     7  H    2.637535   3.186674   3.924049   3.561221   0.966590
                    6          7
     6  H    0.000000
     7  H    1.524824   0.000000
 Stoichiometry    H4O2
 Framework group  CS[SG(H2O2),X(H2)]
 Deg. of freedom     8
 Full point group                 CS      NOp   2
 Largest Abelian subgroup         CS      NOp   2
 Largest concise Abelian subgroup CS      NOp   2
                         Standard orientation:                         
 ---------------------------------------------------------------------
 Center     Atomic      Atomic             Coordinates (Angstroms)
 Number     Number       Type             X           Y           Z
 ---------------------------------------------------------------------
      1          1           0       -0.076032   -0.775080    0.000000
      2          8           0       -0.076032   -1.347820    0.000000
      3          1           0        0.822978   -1.697909    0.000000
      4          8           0       -0.076032    1.224280   -0.000000
      5          1           0        0.234786    1.730655    0.762412
      6          1           0        0.234786    1.730655   -0.762412
 ---------------------------------------------------------------------
 Rotational constants (GHZ):    239.1819354      7.9591824      7.9304146
 Standard basis: Aug-CC-pVDZ (5D, 7F)
 There are    59 symmetry adapted cartesian basis functions of A'  symmetry.
 There are    27 symmetry adapted cartesian basis functions of A"  symmetry.
 There are    55 symmetry adapted basis functions of A'  symmetry.
 There are    27 symmetry adapted basis functions of A"  symmetry.
    82 basis functions,   130 primitive gaussians,    86 cartesian basis functions
    10 alpha electrons       10 beta electrons
       nuclear repulsion energy        41.3214522148 Hartrees.
 NAtoms=    6 NActive=    6 NUniq=    5 SFac= 1.44D+00 NAtFMM=   60 NAOKFM=F Big=F
 Integral buffers will be    131072 words long.
 Raffenetti 1 integral format.
 Two-electron integral symmetry is turned on.
 One-electron integrals computed using PRISM.
 NBasis=    82 RedAO= T EigKep=  1.23D-03  NBF=    55    27
 NBsUse=    82 1.00D-06 EigRej= -1.00D+00 NBFU=    55    27
 Initial guess from the checkpoint file:  "water_dimer_OH_scan.chk"
 B after Tr=     0.000000    0.000000   -0.000000
         Rot=    1.000000    0.000000   -0.000000   -0.000876 Ang=  -0.10 deg.
 Initial guess orbital symmetries:
       Occupied  (A') (A') (A') (A') (A') (A") (A') (A') (A') (A")
       Virtual   (A') (A') (A') (A') (A') (A') (A') (A') (A') (A')
                 (A') (A') (A') (A') (A') (A') (A') (A') (A') (A')
                 (A') (A') (A') (A') (A') (A') (A') (A') (A') (A')
                 (A') (A') (A') (A') (A') (A') (A') (A') (A') (A')
                 (A') (A') (A') (A') (A') (A') (A') (A") (A") (A")
                 (A") (A") (A") (A") (A") (A") (A") (A") (A") (A")
                 (A") (A") (A") (A") (A") (A") (A") (A") (A") (A")
                 (A") (A")
 Keep R1 ints in memory in symmetry-blocked form, NReq=8785626.
 Requested convergence on RMS density matrix=1.00D-08 within 128 cycles.
 Requested convergence on MAX density matrix=1.00D-06.
 Requested convergence on             energy=1.00D-06.
 No special actions if energy rises.
 SCF Done:  E(RHF) =  -151.659556978     A.U. after    9 cycles
            NFock=  9  Conv=0.54D-08     -V/T= 1.9881
 ExpMin= 2.97D-02 ExpMax= 1.17D+04 ExpMxC= 4.01D+02 IAcc=3 IRadAn=         5 AccDes= 0.00D+00
 HarFok:  IExCor=  205 AccDes= 0.00D+00 IRadAn=         5 IDoV=-2 UseB2=F ITyADJ=14
 ICtDFT= 12500011 ScaDFX=  1.000000  1.000000  1.000000  1.000000
 Range of M.O.s used for correlation:     3    82
 NBasis=    82 NAE=    10 NBE=    10 NFC=     2 NFV=     0
 NROrb=     80 NOA=     8 NOB=     8 NVA=    72 NVB=    72

 **** Warning!!: The largest alpha MO coefficient is  0.10925889D+02

 Fully direct method using O(ONN) memory.
 JobTyp=1 Pass  1:  I=   3 to  10 NPSUse=  8 ParTrn=T ParDer=T DoDerP=T.
 Spin components of T(2) and E(2):
     alpha-alpha T2 =       0.1418419248D-01 E2=     -0.5437639505D-01
     alpha-beta  T2 =       0.7976299999D-01 E2=     -0.3162115676D+00
     beta-beta   T2 =       0.1418419248D-01 E2=     -0.5437639505D-01
 ANorm=    0.1052678196D+01
 E2 =    -0.4249643577D+00 EUMP2 =    -0.15208452133567D+03
          IDoAtm=111111
          Differentiating once with respect to electric field.
                with respect to dipole field.
          Differentiating once with respect to nuclear coordinates.
 Keep R1 ints in memory in symmetry-blocked form, NReq=8744513.
          There are     1 degrees of freedom in the 1st order CPHF.  IDoFFX=0 NUNeed=     1.
 LinEq1:  Iter=  0 NonCon=     1 RMS=5.42D-03 Max=5.15D-02 NDo=     1
 AX will form     1 AO Fock derivatives at one time.
 LinEq1:  Iter=  1 NonCon=     1 RMS=1.23D-03 Max=9.32D-03 NDo=     1
 LinEq1:  Iter=  2 NonCon=     1 RMS=4.08D-04 Max=3.00D-03 NDo=     1
 LinEq1:  Iter=  3 NonCon=     1 RMS=7.56D-05 Max=6.12D-04 NDo=     1
 LinEq1:  Iter=  4 NonCon=     1 RMS=2.84D-05 Max=1.94D-04 NDo=     1
 LinEq1:  Iter=  5 NonCon=     1 RMS=5.45D-06 Max=2.96D-05 NDo=     1
 LinEq1:  Iter=  6 NonCon=     1 RMS=1.12D-06 Max=6.07D-06 NDo=     1
 LinEq1:  Iter=  7 NonCon=     1 RMS=1.56D-07 Max=8.22D-07 NDo=     1
 LinEq1:  Iter=  8 NonCon=     1 RMS=2.07D-08 Max=1.34D-07 NDo=     1
 LinEq1:  Iter=  9 NonCon=     1 RMS=3.24D-09 Max=2.00D-08 NDo=     1
 LinEq1:  Iter= 10 NonCon=     1 RMS=5.59D-10 Max=2.99D-09 NDo=     1
 LinEq1:  Iter= 11 NonCon=     0 RMS=8.05D-11 Max=6.95D-10 NDo=     1
 Linear equations converged to 1.000D-10 1.000D-09 after    11 iterations.
 End of Minotr F.D. properties file   721 does not exist.
 End of Minotr F.D. properties file   722 does not exist.
 End of Minotr F.D. properties file   788 does not exist.
 Calling FoFJK, ICntrl=  10002127 FMM=F ISym2X=1 I1Cent= 0 IOpClX= 0 NMat=1 NMatS=1 NMatT=0.
 ***** Axes restored to original set *****
 -------------------------------------------------------------------
 Center     Atomic                   Forces (Hartrees/Bohr)
 Number     Number              X              Y              Z
 -------------------------------------------------------------------
      1        1          -0.001176609   -0.000000000   -1.980227661
      2        8          -0.011368746    0.000000000    1.991800782
      3        1           0.012905852    0.000000000   -0.005922836
      4        8          -0.001918376   -0.000000000   -0.005631760
      5        1           0.000778940    0.000751288   -0.000009262
      6        1           0.000778940   -0.000751288   -0.000009262
 -------------------------------------------------------------------
 Cartesian Forces:  Max     1.991800782 RMS     0.662023076
 -----------------------------------------------------------------------------------------------
                       Internal Coordinate Forces (Hartree/Bohr or radian)
  Cent   Atom   N1       Length/X         N2         Alpha/Y        N3         Beta/Z          J
 -----------------------------------------------------------------------------------------------
      1  H 
      2  O        1   1.980228(     1)
         X        2  -0.000000(     2)      1  -0.000545(     7)
      3  H        2  -0.013972(     3)      1  -0.001818(     8)      3  -0.000000(    12)     0
      4  O        2   0.005574(     4)      3   0.000545(     9)      4  -0.000000(    13)     0
      5  H        5  -0.000838(     5)      4   0.001156(    10)      1  -0.000436(    14)     0
      6  H        5  -0.000838(     6)      4   0.001156(    11)      1   0.000436(    15)     0
 -----------------------------------------------------------------------------------------------
 Internal  Forces:  Max     1.980227661 RMS     0.511307880

 GradGradGradGradGradGradGradGradGradGradGradGradGradGradGradGradGradGrad
 Berny optimization.
 Search for a local minimum.
 Step number   4 out of a maximum of   24 on scan point     1 out of     9
 All quantities printed in internal units (Hartrees-Bohrs-Radians)
 Update second derivatives using D2CorN and points    1    2    3    4
 DE= -5.41D-05 DEPred=-2.75D-05 R= 1.97D+00
 TightC=F SS=  1.41D+00  RLast= 3.19D-02 DXNew= 5.0454D-01 9.5572D-02
 Trust test= 1.97D+00 RLast= 3.19D-02 DXMaxT set to 3.00D-01
 The second derivative matrix:
                          r1        r2        r3        r4        r5
           r1           4.45150
           r2          -0.00000   0.54622
           r3           0.00000  -0.00061   0.03245
           r4           0.00000  -0.00000  -0.00000   0.54080
           r5          -0.00000   0.00000   0.00000  -0.00000   0.54080
           a1           0.00965   0.01754   0.00379   0.00047   0.00047
           a3           0.00199   0.01151  -0.00137  -0.00030  -0.00030
           a4           0.00199   0.01151  -0.00137  -0.00030  -0.00030
           t1          -0.00000   0.00000   0.00000   0.00000   0.00000
           t2          -0.00122   0.00170  -0.00248   0.00019   0.00019
           t3           0.00122  -0.00170   0.00248  -0.00019  -0.00019
           rX           0.00000  -0.00000   0.00000  -0.00000   0.00000
           aX          -0.00000   0.00000   0.00000  -0.00000  -0.00000
           tX           0.00000  -0.00000  -0.00000  -0.00000  -0.00000
                          a1        a3        a4        t1        t2
           a1           0.23647
           a3          -0.03042   0.14321
           a4          -0.03042  -0.00265   0.14321
           t1           0.00000   0.15123  -0.15123   2.85562
           t2          -0.00893   0.11270   0.07027   0.05436   0.13187
           t3           0.00893  -0.07027  -0.11270   0.05436  -0.11662
           rX           0.00000  -0.00000  -0.00000   0.00000   0.00000
           aX          -0.00000   0.00000   0.00000   0.00000  -0.00000
           tX          -0.00000  -0.03850   0.03850  -0.72707  -0.01384
                          t3        rX        aX        tX
           t3           0.13187
           rX          -0.00000   0.00000
           aX           0.00000  -0.00000   0.00000
           tX          -0.01384  -0.00000  -0.00000   0.18512
 ITU=  1  1  1  0
     Eigenvalues ---    0.00065   0.00268   0.15844   0.23129   0.39357
     Eigenvalues --- 1000.000001000.000001000.000001000.000001000.00000
     Eigenvalues --- 1000.000001000.000001000.000001000.00000
 RFO step:  Lambda=-6.13098728D-05 EMin= 6.52994932D-04
 Quartic linear search produced a step of  2.00000.
 Variable       Old X    -DE/DX   Delta X   Delta X   Delta X     New X
                                 (Linear)    (Quad)   (Total)
    r1        1.08232   1.98023   0.00000   0.00000   0.00000   1.08232
    r2        1.82315  -0.01397   0.00000   0.00000   0.00000   1.82315
    r3        4.86056   0.00557   0.00000   0.00000   0.00000   4.86056
    r4        1.82659  -0.00084   0.00000   0.00000   0.00000   1.82659
    r5        1.82659  -0.00084   0.00000   0.00000   0.00000   1.82659
    a1        1.94215  -0.00182   0.00198  -0.03630  -0.03432   1.90782
    a3        1.98905   0.00116   0.03743  -0.13216  -0.09473   1.89432
    a4        1.98905   0.00116   0.03743  -0.13216  -0.09473   1.89432
    t1        3.14159  -0.00000   0.00000   0.00000   0.00000   3.14159
    t2        2.10008  -0.00044  -0.02503   0.09463   0.06960   2.16968
    t3        4.18311   0.00044   0.02503  -0.09463  -0.06960   4.11350
    rX        3.77945  -0.00000   0.00000   0.00000   0.00000   3.77945
    aX        1.57080  -0.00000   0.00000   0.00000   0.00000   1.57080
    tX        3.14159  -0.00000   0.00000   0.00000   0.00000   3.14159
         Item               Value     Threshold  Converged?
 Maximum Force            0.001818     0.000450     NO 
 RMS     Force            0.001128     0.000300     NO 
 Maximum Displacement     0.094731     0.001800     NO 
 RMS     Displacement     0.045368     0.001200     NO 
 Predicted change in Energy=-2.537653D-04
 GradGradGradGradGradGradGradGradGradGradGradGradGradGradGradGradGradGrad

 ---------------------------------------------------------------------------------------------------
                            Z-MATRIX (ANGSTROMS AND DEGREES)
   CD    Cent   Atom    N1       Length/X        N2       Alpha/Y        N3        Beta/Z          J
 ---------------------------------------------------------------------------------------------------
      1      1  H 
      2      2  O        1   0.572740(     1)
      3         X        2   2.000000(     2)      1   90.000(     7)
      4      3  H        2   0.964770(     3)      1  109.310(     8)      3  180.000(    12)      0
      5      4  O        2   2.572100(     4)      3   90.000(     9)      4  180.000(    13)      0
      6      5  H        5   0.966590(     5)      4  108.536(    10)      1  124.314(    14)      0
      7      6  H        5   0.966590(     6)      4  108.536(    11)      1  235.686(    15)      0
 ---------------------------------------------------------------------------------------------------
                         Z-Matrix orientation:                         
 ---------------------------------------------------------------------
 Center     Atomic      Atomic             Coordinates (Angstroms)
 Number     Number       Type             X           Y           Z
 ---------------------------------------------------------------------
      1          1           0        0.000000    0.000000    0.000000
      2          8           0        0.000000    0.000000    0.572740
      3         -1           0        2.000000    0.000000    0.572740
      4          1           0       -0.910494    0.000000    0.891774
      5          8           0        0.000000   -0.000000   -1.999360
      6          1           0       -0.400459   -0.756951   -2.447638
      7          1           0       -0.400459    0.756951   -2.447638
 ---------------------------------------------------------------------
                    Distance matrix (angstroms):
                    1          2          3          4          5
     1  H    0.000000
     2  O    0.572740   0.000000
     3  X    2.080392   2.000000   0.000000
     4  H    1.274464   0.964770   2.927927   0.000000
     5  O    1.999360   2.572100   3.258174   3.031114   0.000000
     6  H    2.593121   3.139431   3.931649   3.461904   0.966590
     7  H    2.593121   3.139431   3.931649   3.461904   0.966590
                    6          7
     6  H    0.000000
     7  H    1.513903   0.000000
 Stoichiometry    H4O2
 Framework group  CS[SG(H2O2),X(H2)]
 Deg. of freedom     8
 Full point group                 CS      NOp   2
 Largest Abelian subgroup         CS      NOp   2
 Largest concise Abelian subgroup CS      NOp   2
                         Standard orientation:                         
 ---------------------------------------------------------------------
 Center     Atomic      Atomic             Coordinates (Angstroms)
 Number     Number       Type             X           Y           Z
 ---------------------------------------------------------------------
      1          1           0       -0.085571   -0.770823   -0.000000
      2          8           0       -0.085571   -1.343563   -0.000000
      3          1           0        0.824923   -1.662597   -0.000000
      4          8           0       -0.085571    1.228537    0.000000
      5          1           0        0.314889    1.676815    0.756951
      6          1           0        0.314889    1.676815   -0.756951
 ---------------------------------------------------------------------
 Rotational constants (GHZ):    226.5471827      8.0066756      7.9966611
 Standard basis: Aug-CC-pVDZ (5D, 7F)
 There are    59 symmetry adapted cartesian basis functions of A'  symmetry.
 There are    27 symmetry adapted cartesian basis functions of A"  symmetry.
 There are    55 symmetry adapted basis functions of A'  symmetry.
 There are    27 symmetry adapted basis functions of A"  symmetry.
    82 basis functions,   130 primitive gaussians,    86 cartesian basis functions
    10 alpha electrons       10 beta electrons
       nuclear repulsion energy        41.3957969917 Hartrees.
 NAtoms=    6 NActive=    6 NUniq=    5 SFac= 1.44D+00 NAtFMM=   60 NAOKFM=F Big=F
 Integral buffers will be    131072 words long.
 Raffenetti 1 integral format.
 Two-electron integral symmetry is turned on.
 One-electron integrals computed using PRISM.
 NBasis=    82 RedAO= T EigKep=  1.20D-03  NBF=    55    27
 NBsUse=    82 1.00D-06 EigRej= -1.00D+00 NBFU=    55    27
 Initial guess from the checkpoint file:  "water_dimer_OH_scan.chk"
 B after Tr=    -0.000000   -0.000000   -0.000000
         Rot=    0.999992   -0.000000    0.000000    0.003987 Ang=   0.46 deg.
 Initial guess orbital symmetries:
       Occupied  (A') (A') (A') (A') (A') (A") (A') (A') (A') (A")
       Virtual   (A') (A') (A') (A') (A') (A') (A') (A') (A') (A')
                 (A') (A') (A') (A') (A') (A') (A') (A') (A') (A')
                 (A') (A') (A') (A') (A') (A') (A') (A') (A') (A')
                 (A') (A') (A') (A') (A') (A') (A') (A') (A') (A')
                 (A') (A') (A') (A') (A') (A') (A') (A") (A") (A")
                 (A") (A") (A") (A") (A") (A") (A") (A") (A") (A")
                 (A") (A") (A") (A") (A") (A") (A") (A") (A") (A")
                 (A") (A")
 ExpMin= 2.97D-02 ExpMax= 1.17D+04 ExpMxC= 4.01D+02 IAcc=3 IRadAn=         5 AccDes= 0.00D+00
 Harris functional with IExCor=  205 and IRadAn=       5 diagonalized for initial guess.
 HarFok:  IExCor=  205 AccDes= 0.00D+00 IRadAn=         5 IDoV= 1 UseB2=F ITyADJ=14
 ICtDFT=  3500011 ScaDFX=  1.000000  1.000000  1.000000  1.000000
 FoFCou: FMM=F IPFlag=           0 FMFlag=      100000 FMFlg1=           0
         NFxFlg=           0 DoJE=T BraDBF=F KetDBF=T FulRan=T
         wScrn=  0.000000 ICntrl=     500 IOpCl=  0 I1Cent=   200000004 NGrid=           0
         NMat0=    1 NMatS0=      1 NMatT0=    0 NMatD0=    1 NMtDS0=    0 NMtDT0=    0
 Petite list used in FoFCou.
 Keep R1 ints in memory in symmetry-blocked form, NReq=8785626.
 Requested convergence on RMS density matrix=1.00D-08 within 128 cycles.
 Requested convergence on MAX density matrix=1.00D-06.
 Requested convergence on             energy=1.00D-06.
 No special actions if energy rises.
 SCF Done:  E(RHF) =  -151.659079875     A.U. after   10 cycles
            NFock= 10  Conv=0.90D-08     -V/T= 1.9881
 ExpMin= 2.97D-02 ExpMax= 1.17D+04 ExpMxC= 4.01D+02 IAcc=3 IRadAn=         5 AccDes= 0.00D+00
 HarFok:  IExCor=  205 AccDes= 0.00D+00 IRadAn=         5 IDoV=-2 UseB2=F ITyADJ=14
 ICtDFT= 12500011 ScaDFX=  1.000000  1.000000  1.000000  1.000000
 Range of M.O.s used for correlation:     3    82
 NBasis=    82 NAE=    10 NBE=    10 NFC=     2 NFV=     0
 NROrb=     80 NOA=     8 NOB=     8 NVA=    72 NVB=    72

 **** Warning!!: The largest alpha MO coefficient is  0.10755820D+02

 Fully direct method using O(ONN) memory.
 JobTyp=1 Pass  1:  I=   3 to  10 NPSUse=  8 ParTrn=T ParDer=T DoDerP=T.
 Spin components of T(2) and E(2):
     alpha-alpha T2 =       0.1418856383D-01 E2=     -0.5438652879D-01
     alpha-beta  T2 =       0.7980061548D-01 E2=     -0.3162919267D+00
     beta-beta   T2 =       0.1418856383D-01 E2=     -0.5438652879D-01
 ANorm=    0.1052700215D+01
 E2 =    -0.4250649843D+00 EUMP2 =    -0.15208414485927D+03
          IDoAtm=111111
          Differentiating once with respect to electric field.
                with respect to dipole field.
          Differentiating once with respect to nuclear coordinates.
 Keep R1 ints in memory in symmetry-blocked form, NReq=8744513.
          There are     1 degrees of freedom in the 1st order CPHF.  IDoFFX=0 NUNeed=     1.
 LinEq1:  Iter=  0 NonCon=     1 RMS=5.42D-03 Max=5.14D-02 NDo=     1
 AX will form     1 AO Fock derivatives at one time.
 LinEq1:  Iter=  1 NonCon=     1 RMS=1.23D-03 Max=9.30D-03 NDo=     1
 LinEq1:  Iter=  2 NonCon=     1 RMS=4.10D-04 Max=2.90D-03 NDo=     1
 LinEq1:  Iter=  3 NonCon=     1 RMS=7.59D-05 Max=6.02D-04 NDo=     1
 LinEq1:  Iter=  4 NonCon=     1 RMS=2.85D-05 Max=2.08D-04 NDo=     1
 LinEq1:  Iter=  5 NonCon=     1 RMS=5.43D-06 Max=2.94D-05 NDo=     1
 LinEq1:  Iter=  6 NonCon=     1 RMS=1.11D-06 Max=5.69D-06 NDo=     1
 LinEq1:  Iter=  7 NonCon=     1 RMS=1.56D-07 Max=7.92D-07 NDo=     1
 LinEq1:  Iter=  8 NonCon=     1 RMS=2.10D-08 Max=1.32D-07 NDo=     1
 LinEq1:  Iter=  9 NonCon=     1 RMS=3.38D-09 Max=2.00D-08 NDo=     1
 LinEq1:  Iter= 10 NonCon=     1 RMS=5.91D-10 Max=3.31D-09 NDo=     1
 LinEq1:  Iter= 11 NonCon=     0 RMS=8.74D-11 Max=7.76D-10 NDo=     1
[...]
 ANorm=    0.1055021267D+01
 E2 =    -0.4322428879D+00 EUMP2 =    -0.15246802463676D+03
          IDoAtm=111111
          Differentiating once with respect to electric field.
                with respect to dipole field.
          Differentiating once with respect to nuclear coordinates.
 Keep R1 ints in memory in canonical form, NReq=6675879.
          There are     1 degrees of freedom in the 1st order CPHF.  IDoFFX=0 NUNeed=     1.
 LinEq1:  Iter=  0 NonCon=     1 RMS=5.56D-03 Max=5.51D-02 NDo=     1
 AX will form     1 AO Fock derivatives at one time.
 LinEq1:  Iter=  1 NonCon=     1 RMS=1.18D-03 Max=9.47D-03 NDo=     1
 LinEq1:  Iter=  2 NonCon=     1 RMS=4.21D-04 Max=3.46D-03 NDo=     1
 LinEq1:  Iter=  3 NonCon=     1 RMS=5.49D-05 Max=4.04D-04 NDo=     1
 LinEq1:  Iter=  4 NonCon=     1 RMS=2.20D-05 Max=1.58D-04 NDo=     1
 LinEq1:  Iter=  5 NonCon=     1 RMS=4.02D-06 Max=2.20D-05 NDo=     1
 LinEq1:  Iter=  6 NonCon=     1 RMS=8.56D-07 Max=5.12D-06 NDo=     1
 LinEq1:  Iter=  7 NonCon=     1 RMS=1.35D-07 Max=8.50D-07 NDo=     1
 LinEq1:  Iter=  8 NonCon=     1 RMS=1.57D-08 Max=1.17D-07 NDo=     1
 LinEq1:  Iter=  9 NonCon=     1 RMS=2.39D-09 Max=1.89D-08 NDo=     1
 LinEq1:  Iter= 10 NonCon=     1 RMS=4.30D-10 Max=2.47D-09 NDo=     1
 LinEq1:  Iter= 11 NonCon=     0 RMS=6.58D-11 Max=4.32D-10 NDo=     1
 Linear equations converged to 1.000D-10 1.000D-09 after    11 iterations.
 End of Minotr F.D. properties file   721 does not exist.
 End of Minotr F.D. properties file   722 does not exist.
 End of Minotr F.D. properties file   788 does not exist.
 Calling FoFJK, ICntrl=  10002127 FMM=F ISym2X=0 I1Cent= 0 IOpClX= 0 NMat=1 NMatS=1 NMatT=0.
 ***** Axes restored to original set *****
 -------------------------------------------------------------------
 Center     Atomic                   Forces (Hartrees/Bohr)
 Number     Number              X              Y              Z
 -------------------------------------------------------------------
      1        1           0.000103226    0.000010861   -0.404353348
      2        8          -0.005314313   -0.000004811    0.403930340
      3        1           0.005232496   -0.000001010   -0.001652257
      4        8           0.000425197   -0.000002161    0.001729782
      5        1          -0.000225573    0.000342021    0.000164859
      6        1          -0.000221032   -0.000344899    0.000180624
 -------------------------------------------------------------------
 Cartesian Forces:  Max     0.404353348 RMS     0.134726736
 -----------------------------------------------------------------------------------------------
                       Internal Coordinate Forces (Hartree/Bohr or radian)
  Cent   Atom   N1       Length/X         N2         Alpha/Y        N3         Beta/Z          J
 -----------------------------------------------------------------------------------------------
      1  H 
      2  O        1   0.404353(     1)
         X        2  -0.000000(     2)      1  -0.000147(     7)
      3  H        2  -0.005488(     3)      1   0.000004(     8)      3  -0.000028(    12)     0
      4  O        2  -0.002075(     4)      3   0.000147(     9)      4   0.000009(    13)     0
      5  H        5  -0.000442(     5)      4  -0.000002(    10)      1   0.000016(    14)     0
      6  H        5  -0.000447(     6)      4  -0.000022(    11)      1  -0.000011(    15)     0
 -----------------------------------------------------------------------------------------------
 Internal  Forces:  Max     0.404353348 RMS     0.104414715

 GradGradGradGradGradGradGradGradGradGradGradGradGradGradGradGradGradGrad
 Berny optimization.
 Search for a local minimum.
 Step number   7 out of a maximum of   24 on scan point     9 out of     9
 All quantities printed in internal units (Hartrees-Bohrs-Radians)
 Update second derivatives using D2CorN and points    1    2    3    4    6
                                                          5    7
 DE= -3.01D-08 DEPred=-1.01D-08 R= 2.97D+00
 Trust test= 2.97D+00 RLast= 6.75D-03 DXMaxT set to 8.41D-02
 The second derivative matrix:
                          r1        r2        r3        r4        r5
           r1           4.45150
           r2          -0.00000   0.54622
           r3           0.00000  -0.00061   0.03245
           r4           0.00000  -0.00000  -0.00000   0.54080
           r5          -0.00000   0.00000   0.00000  -0.00000   0.54080
           a1           0.02580   0.04081  -0.00002   0.00120   0.00124
           a3          -0.00033   0.00018  -0.00005  -0.02031  -0.02037
           a4          -0.00003   0.00020  -0.00002  -0.02189  -0.02185
           t1          -0.00000   0.00000   0.00000   0.00000   0.00000
           t2          -0.00066   0.00003   0.00012   0.02041   0.02051
           t3           0.00081  -0.00022  -0.00016  -0.02030  -0.02023
           rX           0.00000  -0.00000   0.00000  -0.00000   0.00000
           aX          -0.00000   0.00000   0.00000  -0.00000  -0.00000
           tX           0.00000  -0.00000  -0.00000  -0.00000  -0.00000
                          a1        a3        a4        t1        t2
           a1           0.15883
           a3          -0.00010   0.14718
           a4          -0.00462   0.00844   0.14802
           t1           0.00480   0.14918  -0.14815   2.85562
           t2           0.00329  -0.04720  -0.09252   0.05188   0.07197
           t3          -0.00203   0.09205   0.04914   0.05101  -0.05799
           rX           0.00000  -0.00000  -0.00000   0.00000   0.00000
           aX          -0.00000   0.00000   0.00000   0.00000  -0.00000
           tX          -0.00126  -0.03790   0.03766  -0.72707  -0.01342
                          t3        rX        aX        tX
           t3           0.07291
           rX          -0.00000   0.00000
           aX           0.00000  -0.00000   0.00000
           tX          -0.01317  -0.00000  -0.00000   0.18512
 ITU=  0  0  0  0  1  1  0
     Eigenvalues ---    0.00042   0.00219   0.15164   0.16018   0.28448
     Eigenvalues --- 1000.000001000.000001000.000001000.000001000.00000
     Eigenvalues --- 1000.000001000.000001000.000001000.00000
 RFO step:  Lambda= 0.00000000D+00 EMin= 4.20631077D-04
 Quartic linear search produced a step of  0.28621.
 Variable       Old X    -DE/DX   Delta X   Delta X   Delta X     New X
                                 (Linear)    (Quad)   (Total)
    r1        1.46027   0.40435   0.00000   0.00000   0.00000   1.46027
    r2        1.82315  -0.00549   0.00000   0.00000   0.00000   1.82315
    r3        6.75029  -0.00208   0.00000   0.00000   0.00000   6.75029
    r4        1.82659  -0.00044   0.00000   0.00000   0.00000   1.82659
    r5        1.82659  -0.00045   0.00000   0.00000   0.00000   1.82659
    a1        1.87698   0.00000   0.00001   0.00001   0.00002   1.87700
    a3        2.07086  -0.00000   0.00012   0.00053   0.00065   2.07151
    a4        2.07538  -0.00002   0.00082  -0.00036   0.00047   2.07584
    t1        3.14159  -0.00003   0.00000   0.00000   0.00000   3.14159
    t2        1.11004   0.00002   0.00165  -0.00099   0.00066   1.11070
    t3        5.16041  -0.00001   0.00056  -0.00133  -0.00077   5.15964
    rX        3.77945  -0.00000   0.00000   0.00000   0.00000   3.77945
    aX        1.57080  -0.00000   0.00000   0.00000   0.00000   1.57080
    tX        3.14159   0.00001   0.00000   0.00000   0.00000   3.14159
         Item               Value     Threshold  Converged?
 Maximum Force            0.000022     0.000450     YES
 RMS     Force            0.000013     0.000300     YES
 Maximum Displacement     0.000767     0.001800     YES
 RMS     Displacement     0.000345     0.001200     YES
 Predicted change in Energy=-3.490363D-09
 Optimization completed.
    -- Stationary point found.
                       ----------------------------
                       !   Optimized Parameters   !
                       ! (Angstroms and Degrees)  !
 ----------------------                            ----------------------
 !      Name          Value   Derivative information (Atomic Units)     !
 ------------------------------------------------------------------------
 !       r1          0.7727   -DE/DX =    0.4044                        !
 !       r2          0.9648   -DE/DX =   -0.0055                        !
 !       r3          3.5721   -DE/DX =   -0.0021                        !
 !       r4          0.9666   -DE/DX =   -0.0004                        !
 !       r5          0.9666   -DE/DX =   -0.0004                        !
 !       a1        107.5431   -DE/DX =    0.0                           !
 !       a3        118.6517   -DE/DX =    0.0                           !
 !       a4        118.9102   -DE/DX =    0.0                           !
 !       t1        180.0      -DE/DX =    0.0                           !
 !       t2         63.6006   -DE/DX =    0.0                           !
 !       t3        295.6696   -DE/DX =    0.0                           !
 !       rX          2.0      -DE/DX =    0.0                           !
 !       aX         90.0      -DE/DX =    0.0                           !
 !       tX        180.0      -DE/DX =    0.0                           !
 ------------------------------------------------------------------------
 GradGradGradGradGradGradGradGradGradGradGradGradGradGradGradGradGradGrad

 Summary of Optimized Potential Surface Scan
                           1         2         3         4         5
     Eigenvalues --  -152.08536-152.34848-152.46820-152.47012-152.34937
           r1           0.57274   0.67274   0.77274   0.77274   0.67274
           r2           0.96477   0.96477   0.96477   0.96477   0.96477
           r3           2.57210   2.57210   2.57210   3.07210   3.07210
           r4           0.96659   0.96659   0.96659   0.96659   0.96659
           r5           0.96659   0.96659   0.96659   0.96659   0.96659
           a1         110.62791 109.25817 107.81631 107.50695 109.24284
           a3         125.04139 126.72795 126.62952 120.73094 119.45382
           a4         125.18021 126.76611 126.69943 120.85259 119.70903
           t1         180.00000 180.00000 180.00000 180.00000 180.00000
           t2          72.10951  79.84856  79.88986  66.07754  64.63520
           t3         288.35677 280.27909 280.33018 292.98811 294.76691
           rX           2.00000   2.00000   2.00000   2.00000   2.00000
           aX          90.00000  90.00000  90.00000  90.00000  90.00000
           tX         180.00000 180.00000 180.00000 180.00000 180.00000
                           6         7         8         9
     Eigenvalues --  -152.08550-152.08355-152.34741-152.46802
           r1           0.57274   0.57274   0.67274   0.77274
           r2           0.96477   0.96477   0.96477   0.96477
           r3           3.07210   3.57210   3.57210   3.57210
           r4           0.96659   0.96659   0.96659   0.96659
           r5           0.96659   0.96659   0.96659   0.96659
           a1         110.78555 111.00948 109.37933 107.54313
           a3         116.78030 114.93418 117.29829 118.65175
           a4         117.02616 115.12092 117.48912 118.91023
           t1         180.00000 180.00000 180.00000 180.00000
           t2          61.70955  60.05754  62.04544  63.60061
           t3         297.68151 299.40612 297.07695 295.66955
           rX           2.00000   2.00000   2.00000   2.00000
           aX          90.00000  90.00000  90.00000  90.00000
           tX         180.00000 180.00000 180.00000 180.00000
 ---------------------------------------------------------------------------------------------------
                            Z-MATRIX (ANGSTROMS AND DEGREES)
   CD    Cent   Atom    N1       Length/X        N2       Alpha/Y        N3        Beta/Z          J
 ---------------------------------------------------------------------------------------------------
      1      1  H 
      2      2  O        1   0.772740(     1)
      3         X        2   2.000000(     2)      1   90.000(     7)
      4      3  H        2   0.964770(     3)      1  107.543(     8)      3  180.000(    12)      0
      5      4  O        2   3.572100(     4)      3   90.000(     9)      4  180.000(    13)      0
      6      5  H        5   0.966590(     5)      4  118.652(    10)      1   63.601(    14)      0
      7      6  H        5   0.966590(     6)      4  118.910(    11)      1  295.670(    15)      0
 ---------------------------------------------------------------------------------------------------
                         Z-Matrix orientation:                         
 ---------------------------------------------------------------------
 Center     Atomic      Atomic             Coordinates (Angstroms)
 Number     Number       Type             X           Y           Z
 ---------------------------------------------------------------------
      1          1           0        0.000000    0.000000    0.000000
      2          8           0        0.000000    0.000000    0.772740
      3         -1           0        2.000000    0.000000    0.772740
      4          1           0       -0.919899    0.000000    1.063544
      5          8           0        0.000000   -0.000000   -2.799360
      6          1           0        0.474252   -0.759775   -3.162849
      7          1           0        0.464808    0.762625   -3.169026
 ---------------------------------------------------------------------
                    Distance matrix (angstroms):
                    1          2          3          4          5
     1  H    0.000000
     2  O    0.772740   0.000000
     3  X    2.144091   2.000000   0.000000
     4  H    1.406179   0.964770   2.934344   0.000000
     5  O    2.799360   3.572100   4.093885   3.970925   0.000000
     6  H    3.287215   4.036215   4.288825   4.514788   0.966590
     7  H    3.292472   4.041678   4.298364   4.518148   0.966590
                    6          7
     6  H    0.000000
     7  H    1.522441   0.000000
 Stoichiometry    H4O2
 Framework group  C1[X(H4O2)]
 Deg. of freedom    12
 Full point group                 C1      NOp   1
 Largest Abelian subgroup         C1      NOp   1
 Largest concise Abelian subgroup C1      NOp   1
                         Standard orientation:                         
 ---------------------------------------------------------------------
 Center     Atomic      Atomic             Coordinates (Angstroms)
 Number     Number       Type             X           Y           Z
 ---------------------------------------------------------------------
      1          1           0        1.072135    0.003711    0.064245
      2          8           0        1.843446    0.006318    0.111159
      3          1           0        2.189646   -0.046057   -0.787831
      4          8           0       -1.722045   -0.005735   -0.105708
      5          1           0       -2.113577    0.779038    0.300655
      6          1           0       -2.119411   -0.741359    0.379322
 ---------------------------------------------------------------------
 Rotational constants (GHZ):    216.9636995      4.2821253      4.2816129

 **********************************************************************

            Population analysis using the MP2 density.

 **********************************************************************

 Orbital symmetries:
       Occupied  (A) (A) (A) (A) (A) (A) (A) (A) (A) (A)
       Virtual   (A) (A) (A) (A) (A) (A) (A) (A) (A) (A) (A) (A)
                 (A) (A) (A) (A) (A) (A) (A) (A) (A) (A) (A) (A)
                 (A) (A) (A) (A) (A) (A) (A) (A) (A) (A) (A) (A)
                 (A) (A) (A) (A) (A) (A) (A) (A) (A) (A) (A) (A)
                 (A) (A) (A) (A) (A) (A) (A) (A) (A) (A) (A) (A)
                 (A) (A) (A) (A) (A) (A) (A) (A) (A) (A) (A) (A)
 The electronic state is 1-A.
 Alpha  occ. eigenvalues --  -20.59011 -20.54309  -1.40066  -1.36342  -0.76339
 Alpha  occ. eigenvalues --   -0.72387  -0.59775  -0.57980  -0.52057  -0.50336
 Alpha virt. eigenvalues --    0.03040   0.05206   0.05617   0.08462   0.16688
 Alpha virt. eigenvalues --    0.18263   0.19927   0.21496   0.22912   0.23191
 Alpha virt. eigenvalues --    0.24974   0.28056   0.28794   0.32633   0.34662
 Alpha virt. eigenvalues --    0.36244   0.37190   0.42615   0.44863   0.46323
 Alpha virt. eigenvalues --    0.50006   0.53952   0.55968   0.58794   0.64181
 Alpha virt. eigenvalues --    0.65559   0.65966   0.74142   0.80072   0.89682
 Alpha virt. eigenvalues --    0.92603   1.02104   1.09756   1.11579   1.13782
 Alpha virt. eigenvalues --    1.16191   1.18979   1.22120   1.33462   1.39698
 Alpha virt. eigenvalues --    1.45204   1.48646   1.55234   1.56889   1.62109
 Alpha virt. eigenvalues --    1.81639   1.99079   2.03043   2.05608   2.07809
 Alpha virt. eigenvalues --    2.13867   2.24870   2.35203   2.46090   2.47901
 Alpha virt. eigenvalues --    2.53504   2.60928   2.69952   2.70413   2.94398
 Alpha virt. eigenvalues --    2.99079   3.31707   3.67993   3.68977   3.69199
 Alpha virt. eigenvalues --    3.73842   3.75303   3.77629   4.01949   4.14493
 Alpha virt. eigenvalues --    4.28115   4.66541
          Condensed to atoms (all electrons):
               1          2          3          4          5          6
     1  H    0.887565   0.318423  -0.124543   0.002549  -0.000310  -0.000294
     2  O    0.318423   7.373739   0.352358  -0.004554  -0.000013  -0.000012
     3  H   -0.124543   0.352358   0.652640   0.000737  -0.000064  -0.000066
     4  O    0.002549  -0.004554   0.000737   7.632018   0.325125   0.325030
     5  H   -0.000310  -0.000013  -0.000064   0.325125   0.591455  -0.058729
     6  H   -0.000294  -0.000012  -0.000066   0.325030  -0.058729   0.591309
 Mulliken charges:
               1
     1  H   -0.083389
     2  O   -0.039941
     3  H    0.118938
     4  O   -0.280905
     5  H    0.142535
     6  H    0.142762
 Sum of Mulliken charges =  -0.00000
 Mulliken charges with hydrogens summed into heavy atoms:
               1
     2  O   -0.004392
     4  O    0.004392
 Electronic spatial extent (au):  <R**2>=            269.8697
 Charge=             -0.0000 electrons
 Dipole moment (field-independent basis, Debye):
    X=             -2.2496    Y=             -0.0149    Z=             -0.1826  Tot=              2.2571
 Quadrupole moment (field-independent basis, Debye-Ang):
   XX=            -11.1287   YY=            -12.1806   ZZ=            -12.9629
   XY=             -0.3943   XZ=             -7.1639   YZ=             -0.0253
 Traceless Quadrupole moment (field-independent basis, Debye-Ang):
   XX=              0.9621   YY=             -0.0899   ZZ=             -0.8722
   XY=             -0.3943   XZ=             -7.1639   YZ=             -0.0253
 Octapole moment (field-independent basis, Debye-Ang**2):
  XXX=            -13.0919  YYY=              0.1184  ZZZ=             -0.9147  XYY=             -6.8511
  XXY=             -0.1826  XXZ=             -1.8413  XZZ=              2.4313  YZZ=             -0.1290
  YYZ=              0.7164  XYZ=              0.5054
 Hexadecapole moment (field-independent basis, Debye-Ang**3):
 XXXX=           -255.6822 YYYY=            -14.2520 ZZZZ=            -15.4207 XXXY=             -2.0640
 XXXZ=            -39.1753 YYYX=             -0.4573 YYYZ=             -0.0551 ZZZX=             -5.7667
 ZZZY=              0.0002 XXYY=            -42.0936 XXZZ=            -45.0460 YYZZ=             -5.1094
 XXYZ=             -0.1015 YYXZ=             -2.8091 ZZXY=             -0.0244
 N-N= 3.406164698238D+01 E-N=-4.288960181337D+02  KE= 1.525362265039D+02

 This type of calculation cannot be archived.


 Sometimes the fool who rushes in gets the job done.
                                    -- Al Bernstein
 Job cpu time:       0 days  0 hours 17 minutes 24.1 seconds.
 File lengths (MBytes):  RWF=      6 Int=      0 D2E=      0 Chk=      2 Scr=      1
 Normal termination of Gaussian 09 at Sun Oct  6 18:58:25 2019.
